Program Version,EnergyPlus, Version 9.5.0-de239b2e5f, YMD=2023.12.06 14:45
1,5,Environment Title[],Latitude[deg],Longitude[deg],Time Zone[],Elevation[m]
2,8,Day of Simulation[],Month[],Day of Month[],DST Indicator[1=yes 0=no],Hour[],StartMinute[],EndMinute[],DayType
3,5,Cumulative Day of Simulation[],Month[],Day of Month[],DST Indicator[1=yes 0=no],DayType  ! When Daily Meters Requested
4,2,Cumulative Days of Simulation[],Month[]  ! When Monthly Meters Requested
5,1,Cumulative Days of Simulation[] ! When Run Period Meters Requested
6,1,Calendar Year of Simulation[] ! When Annual Meters Requested
50,9,InteriorLights:Electricity [J] !Monthly [Value,Min,Day,Hour,Minute,Max,Day,Hour,Minute]
87,9,InteriorEquipment:Electricity [J] !Monthly [Value,Min,Day,Hour,Minute,Max,Day,Hour,Minute]
205,9,Fans:Electricity [J] !Monthly [Value,Min,Day,Hour,Minute,Max,Day,Hour,Minute]
720,9,Heating:Electricity [J] !Monthly [Value,Min,Day,Hour,Minute,Max,Day,Hour,Minute]
682,9,Cooling:Electricity [J] !Monthly [Value,Min,Day,Hour,Minute,Max,Day,Hour,Minute]
541,9,ElectricityNet:Facility [J] !Monthly [Value,Min,Day,Hour,Minute,Max,Day,Hour,Minute]
End of Data Dictionary
1,GREAT FALLS INTL ARPT ANN HTG 99.6% CONDNS DB HVAC Sizing Pass 1,  47.47,-111.38,  -7.00,1117.00
4,1, 1
50,0.0,0.0,21, 1,15,0.0,21, 1,15
87,4389041.095890413,45719.17808219178,21, 1,15,45719.17808219178,21, 1,15
205,17506377.436632288,182358.09829825274,21, 1,15,182358.09829825274,21, 1,15
541,827220664.0496441,7390839.814448571,21, 1,15,9447769.490118493,21,24,15
682,0.0,0.0,21, 1,15,0.0,21, 1,15
720,798223632.2117795,7152862.538068126,21, 1,15,8807170.998785193,21,24,60
1,GREAT FALLS INTL ARPT ANN HTG 99% CONDNS DB HVAC Sizing Pass 1,  47.47,-111.38,  -7.00,1117.00
4,1, 1
50,0.0,0.0,21, 1,15,0.0,21, 1,15
87,4389041.095890413,45719.17808219178,21, 1,15,45719.17808219178,21, 1,15
205,17506377.436632288,182358.09829825274,21, 1,15,182358.09829825274,21, 1,15
541,720188660.5746876,6282334.4043760499,21, 1,15,8331889.8684779829,21,24,15
682,0.0,0.0,21, 1,15,0.0,21, 1,15
720,691191629.2668882,6044357.127995605,21, 1,15,7691099.64018531,21,24,60
1,GREAT FALLS INTL ARPT ANN CLG .4% CONDNS DB=>MWB HVAC Sizing Pass 1,  47.47,-111.38,  -7.00,1117.00
4,1, 7
50,0.0,0.0,21, 1,15,0.0,21, 1,15
87,70954051.33685301,739104.7014255518,21, 1,15,739104.7014255518,21, 1,15
205,3366950.7028965128,16990.1082,21, 2,60,39530.925589049286,21, 1,15
541,66321396.80701257,-398144.69009582026,21,12,45,2015950.3617565395,21,19,45
682,46629256.06657102,0.0,21, 2,60,1076248.8514038928,21,16,45
720,0.0,0.0,21, 1,15,0.0,21, 1,15
1,GREAT FALLS INTL ARPT ANN CLG 1% CONDNS DB=>MWB HVAC Sizing Pass 1,  47.47,-111.38,  -7.00,1117.00
4,1, 7
50,0.0,0.0,21, 1,15,0.0,21, 1,15
87,70954051.33685301,739104.7014255518,21, 1,15,739104.7014255518,21, 1,15
205,3186366.7870443977,16990.1082,21, 1,45,39530.925589049286,21, 1,15
541,57203856.61776722,-558766.1039348266,21,12,60,1919249.1845538037,21,19,45
682,38295386.23930073,0.0,21, 1,45,931177.2329822382,21,16,60
720,0.0,0.0,21, 1,15,0.0,21, 1,15
1,GREAT FALLS INTL ARPT ANN HTG 99.6% CONDNS DB,  47.47,-111.38,  -7.00,1117.00
4,1, 1
50,0.0,0.0,21, 1,15,0.0,21, 1,15
87,4389041.095890413,45719.17808219178,21, 1,15,45719.17808219178,21, 1,15
205,17506377.436632288,182358.09829825274,21, 1,15,182358.09829825274,21, 1,15
541,827403599.0931699,7393026.892856971,21, 1,15,9449538.191214838,21,24,15
682,0.0,0.0,21, 1,15,0.0,21, 1,15
720,798406567.2607305,7155049.616476527,21, 1,15,8808943.00567259,21,24,60
1,GREAT FALLS INTL ARPT ANN HTG 99% CONDNS DB,  47.47,-111.38,  -7.00,1117.00
4,1, 1
50,0.0,0.0,21, 1,15,0.0,21, 1,15
87,4389041.095890413,45719.17808219178,21, 1,15,45719.17808219178,21, 1,15
205,17506377.436632288,182358.09829825274,21, 1,15,182358.09829825274,21, 1,15
541,720188501.7130238,6282332.506077256,21, 1,15,8331888.330486051,21,24,15
682,0.0,0.0,21, 1,15,0.0,21, 1,15
720,691191470.4052184,6044355.229696811,21, 1,15,7691098.100286773,21,24,60
1,GREAT FALLS INTL ARPT ANN CLG .4% CONDNS DB=>MWB,  47.47,-111.38,  -7.00,1117.00
4,1, 7
50,0.0,0.0,21, 1,15,0.0,21, 1,15
87,70954051.33685301,739104.7014255518,21, 1,15,739104.7014255518,21, 1,15
205,3366950.702859356,16990.1082,21, 2,60,39530.925589049286,21, 1,15
541,66321396.76231878,-398144.69077056818,21,12,45,2015950.361202156,21,19,45
682,46629256.02191436,0.0,21, 2,60,1076248.8507771872,21,16,45
720,0.0,0.0,21, 1,15,0.0,21, 1,15
1,GREAT FALLS INTL ARPT ANN CLG 1% CONDNS DB=>MWB,  47.47,-111.38,  -7.00,1117.00
4,1, 7
50,0.0,0.0,21, 1,15,0.0,21, 1,15
87,70954051.33685301,739104.7014255518,21, 1,15,739104.7014255518,21, 1,15
205,3186366.7870443977,16990.1082,21, 1,45,39530.925589049286,21, 1,15
541,57203856.6172575,-558766.1039364826,21,12,60,1919249.184546003,21,19,45
682,38295386.238791059,0.0,21, 1,45,931177.2329737495,21,16,60
720,0.0,0.0,21, 1,15,0.0,21, 1,15
1,ANNUAL,  47.47,-111.38,  -7.00,1117.00
4,31, 1
50,219639774.06886206,14170.308004442802, 1, 1,15,226724.92807108485, 1,21,15
87,1166566162.6372848,95718.73441333045, 1, 4,15,876438.6073308148, 1,20,15
205,402052340.5651366,16990.1082, 1, 1,15,182358.09829825274, 1, 7,30
541,12861559708.330742,-1725668.7910605085, 1,14,15,11197897.72566248,10,23,60
682,0.0,0.0, 1, 1,15,0.0, 1, 1,15
720,11959463055.811942,0.0, 1, 1,15,10559668.321792469,10,24,15
4,59, 2
50,198384312.06219838,14170.308004442802, 1, 1,15,226724.92807108485, 1,21,15
87,1053672663.0272216,95718.73441333045, 1, 4,15,876438.6073308148, 1,20,15
205,292521729.00857248,16990.1082,12,15,30,182358.09829825274, 1, 1,15
541,7265639186.565944,-2023895.6043098267,25,13,30,8613917.376988242, 1, 8,15
682,0.0,0.0, 1, 1,15,0.0, 1, 1,15
720,6812953854.194182,0.0,12,15,30,7869424.953639105, 1, 8,15
4,90, 3
50,219639774.06886206,14170.308004442802, 1, 1,15,226724.92807108485, 1,21,15
87,1166566162.6372848,95718.73441333045, 1, 4,15,876438.6073308148, 1,20,15
205,283079166.16239646,16990.1082, 1,14,45,182358.09829825274, 1, 1,15
541,5799881867.191301,-2321468.8382633647,23,13,30,8193697.849046179, 4,24,60
682,0.0,0.0, 1, 1,15,0.0, 1, 1,15
720,5405681264.03711,0.0, 1,14,45,7790687.552405889, 5, 1,15
4,120, 4
50,212554620.06664083,14170.308004442802, 1, 1,15,226724.92807108485, 1,21,15
87,1128934996.100597,95718.73441333045, 1, 4,15,876438.6073308148, 1,20,15
205,139869285.09761734,16990.1082, 1,13,45,182358.09829825274, 4, 6,60
541,2309185498.6041419,-2060008.3961938048, 2,13,30,4542927.270604028,29, 6,15
682,0.0,0.0, 1, 1,15,0.0, 1, 1,15
720,2011984092.8993774,0.0, 1,13,45,4083170.0820977345,29, 5,60
4,151, 5
50,219639774.06886206,14170.308004442802, 1, 1,15,226724.92807108485, 1,21,15
87,1166566162.6372848,95718.73441333045, 1, 4,15,876438.6073308148, 1,20,15
205,125143027.42078783,16990.1082, 1,13,15,182358.09829825274, 1, 1,15
541,1546473007.6383982,-1884499.7405344572, 1,13,30,3730517.000680708, 8, 6,30
682,33934056.911580298,0.0, 1, 1,15,562580.3504093847,19,19,15
720,1278294099.1291273,0.0, 1,13,15,3253829.0573801917, 8, 5,60
4,181, 6
50,212554620.06664083,14170.308004442802, 1, 1,15,226724.92807108485, 1,21,15
87,1128934996.100597,95718.73441333045, 1, 4,15,876438.6073308148, 1,20,15
205,72375988.54467723,16990.1082, 1, 1,15,39530.925589049286, 2,18,15
541,504377076.0027876,-1563311.0797794529, 6,13,30,2080965.6305275369,28,20,15
682,377086218.0736593,0.0, 1, 1,15,1037434.1157632357,28,19,15
720,46271126.89567009,0.0, 1, 1,15,1463847.2517964272,17, 4,60
4,212, 7
50,219639774.06886206,14170.308004442802, 1, 1,15,226724.92807108485, 1,21,15
87,1166566162.6372848,95718.73441333045, 1, 4,15,876438.6073308148, 1,20,15
205,91153788.06039104,16990.1082, 1, 1,45,52854.48636336372,17,19,15
541,985183059.8112927,-1617614.6077788068, 8,13,30,2512449.7669575477,17,19,15
682,953611516.1804506,0.0, 1, 1,45,1589722.055898505,17,19,15
720,0.0,0.0, 1, 1,15,0.0, 1, 1,15
4,243, 8
50,219639774.06886206,14170.308004442802, 1, 1,15,226724.92807108485, 1,21,15
87,1166566162.6372848,95718.73441333045, 1, 4,15,876438.6073308148, 1,20,15
205,86413709.01134597,16990.1082, 1, 1,60,42540.10584331512,10,18,15
541,795843889.3581101,-1814702.8456062279,18,14,30,2335257.8582030695, 5,20,15
682,747975749.1890489,0.0, 1, 1,60,1376906.0019989468, 6,17,15
720,283691.0330394806,0.0, 1, 1,15,72627.93463899339,18, 5,60
4,273, 9
50,212554620.06664083,14170.308004442802, 1, 1,15,226724.92807108485, 1,21,15
87,1128934996.100597,95718.73441333045, 1, 4,15,876438.6073308148, 1,20,15
205,73197932.73776895,16990.1082, 1, 1,15,182358.09829825274,17, 3,60
541,667551654.0041039,-1963821.761045191,16,13,30,2164896.437757866, 4,19,15
682,307338140.3272338,0.0, 1, 1,15,1318292.9845541837, 2,18,15
720,222136402.96284945,0.0, 1, 1,15,1599833.773829956,19, 4,60
4,304,10
50,219639774.06886206,14170.308004442802, 1, 1,15,226724.92807108485, 1,21,15
87,1166566162.6372848,95718.73441333045, 1, 4,15,876438.6073308148, 1,20,15
205,114172452.44973089,16990.1082, 1, 1,15,182358.09829825274, 4, 2,15
541,1475331825.337428,-2033590.0895398888,11,13,30,3962585.977616665,10, 7,30
682,620953.1468427639,0.0, 1, 1,15,120386.06950881082,18,17,15
720,1138361650.9467805,0.0, 1, 1,15,3322806.7780941256,10, 5,60
4,334,11
50,212554620.06664083,14170.308004442802, 1, 1,15,226724.92807108485, 1,21,15
87,1128934996.100597,95718.73441333045, 1, 4,15,876438.6073308148, 1,20,15
205,249341043.34932319,16990.1082, 1,13,45,182358.09829825274, 2, 4,30
541,4867431657.732743,-1873086.315262097, 3,13,15,6607975.553010161,27, 5,15
682,0.0,0.0, 1, 1,15,0.0, 1, 1,15
720,4197544885.372241,0.0, 1,13,45,6259904.784287372,27, 4,60
4,365,12
50,219639774.06886206,14170.308004442802, 1, 1,15,226724.92807108485, 1,21,15
87,1166566162.6372848,95718.73441333045, 1, 4,15,876438.6073308148, 1,20,15
205,393266783.86220249,17385.092003682716, 6,17,15,182358.09829825274, 1, 1,15
541,9964313662.87896,-1234825.1539449054,20,13,30,9732560.512212838,29, 9,15
682,0.0,0.0, 1, 1,15,0.0, 1, 1,15
720,8973224711.350937,6687.208268413777, 6,17,15,9143136.16765045,29, 9,30
End of Data
 Number of Records Written=         120
