Program Version,EnergyPlus, Version 9.5.0-de239b2e5f, YMD=2023.08.02 11:53
1,5,Environment Title[],Latitude[deg],Longitude[deg],Time Zone[],Elevation[m]
2,8,Day of Simulation[],Month[],Day of Month[],DST Indicator[1=yes 0=no],Hour[],StartMinute[],EndMinute[],DayType
3,5,Cumulative Day of Simulation[],Month[],Day of Month[],DST Indicator[1=yes 0=no],DayType  ! When Daily Meters Requested
4,2,Cumulative Days of Simulation[],Month[]  ! When Monthly Meters Requested
5,1,Cumulative Days of Simulation[] ! When Run Period Meters Requested
6,1,Calendar Year of Simulation[] ! When Annual Meters Requested
48,9,InteriorLights:Electricity [J] !Monthly [Value,Min,Day,Hour,Minute,Max,Day,Hour,Minute]
85,9,InteriorEquipment:Electricity [J] !Monthly [Value,Min,Day,Hour,Minute,Max,Day,Hour,Minute]
202,9,Fans:Electricity [J] !Monthly [Value,Min,Day,Hour,Minute,Max,Day,Hour,Minute]
715,9,Heating:Electricity [J] !Monthly [Value,Min,Day,Hour,Minute,Max,Day,Hour,Minute]
677,9,Cooling:Electricity [J] !Monthly [Value,Min,Day,Hour,Minute,Max,Day,Hour,Minute]
538,9,ElectricityNet:Facility [J] !Monthly [Value,Min,Day,Hour,Minute,Max,Day,Hour,Minute]
End of Data Dictionary
1,MONTREAL INT'L ANN HTG 99.6% CONDNS DB HVAC Sizing Pass 1,  45.47, -73.75,  -5.00,  36.00
4,1, 1
48,0.0,0.0,21, 1,15,0.0,21, 1,15
85,4389041.095890413,45719.17808219178,21, 1,15,45719.17808219178,21, 1,15
202,8588030.075392859,89458.6466186757,21, 1,15,89458.6466186757,21, 1,15
538,439092522.5108487,3396650.2633550337,21, 1,15,5404332.909919006,21,24,15
677,0.0,0.0,21, 1,15,0.0,21, 1,15
715,419013837.66840758,3251572.4386541659,21, 1,15,4857960.544696032,21,24,60
1,MONTREAL INT'L ANN HTG 99% CONDNS DB HVAC Sizing Pass 1,  45.47, -73.75,  -5.00,  36.00
4,1, 1
48,0.0,0.0,21, 1,15,0.0,21, 1,15
85,4389041.095890413,45719.17808219178,21, 1,15,45719.17808219178,21, 1,15
202,8588030.075392859,89458.6466186757,21, 1,15,89458.6466186757,21, 1,15
538,412772701.8102478,3131110.1947424265,21, 1,15,5123766.040723622,21,24,15
677,0.0,0.0,21, 1,15,0.0,21, 1,15
715,392694017.9364384,2986032.370041559,21, 1,15,4576677.403940002,21,24,60
1,MONTREAL INT'L ANN HUM_N 99.6% CONDNS DP=>MCDB HVAC Sizing Pass 1,  45.47, -73.75,  -5.00,  36.00
4,1, 1
48,0.0,0.0,21, 1,15,0.0,21, 1,15
85,4389041.095890413,45719.17808219178,21, 1,15,45719.17808219178,21, 1,15
202,8588030.075392859,89458.6466186757,21, 1,15,89458.6466186757,21, 1,15
538,434351015.6324909,3348593.98901796,21, 1,15,5353990.903795286,21,24,15
677,0.0,0.0,21, 1,15,0.0,21, 1,15
715,414272331.17320016,3203516.1643170926,21, 1,15,4807578.577672492,21,24,60
1,MONTREAL INT'L ANN HUM_N 99% CONDNS DP=>MCDB HVAC Sizing Pass 1,  45.47, -73.75,  -5.00,  36.00
4,1, 1
48,0.0,0.0,21, 1,15,0.0,21, 1,15
85,4389041.095890413,45719.17808219178,21, 1,15,45719.17808219178,21, 1,15
202,8588030.075392859,89458.6466186757,21, 1,15,89458.6466186757,21, 1,15
538,410159970.0525582,3104782.3666881837,21, 1,15,5095944.577945651,21,24,15
677,0.0,0.0,21, 1,15,0.0,21, 1,15
715,390081286.6312315,2959704.541987316,21, 1,15,4548836.773024818,21,24,60
1,MONTREAL INT'L ANN HTG WIND 99.6% CONDNS WS=>MCDB HVAC Sizing Pass 1,  45.47, -73.75,  -5.00,  36.00
4,1, 1
48,0.0,0.0,21, 1,15,0.0,21, 1,15
85,4389041.095890413,45719.17808219178,21, 1,15,45719.17808219178,21, 1,15
202,8588030.075392859,89458.6466186757,21, 1,15,89458.6466186757,21, 1,15
538,261367261.65459479,1621703.4542199502,21, 1,15,3506269.6886041394,21,24,15
677,0.0,0.0,21, 1,15,0.0,21, 1,15
715,241288584.03649036,1476625.6295190824,21, 1,15,2957760.0217769409,21,24,60
1,MONTREAL INT'L ANN HTG WIND 99% CONDNS WS=>MCDB HVAC Sizing Pass 1,  45.47, -73.75,  -5.00,  36.00
4,1, 1
48,0.0,0.0,21, 1,15,0.0,21, 1,15
85,4389041.095890413,45719.17808219178,21, 1,15,45719.17808219178,21, 1,15
202,8588030.075392859,89458.6466186757,21, 1,15,89458.6466186757,21, 1,15
538,287559964.02254655,1879298.623745695,21, 1,15,3787891.6987627425,21,24,15
677,0.0,0.0,21, 1,15,0.0,21, 1,15
715,267481281.58021704,1734220.7990448273,21, 1,15,3239661.390787696,21,24,60
1,MONTREAL INT'L ANN CLG .4% CONDNS DB=>MWB HVAC Sizing Pass 1,  45.47, -73.75,  -5.00,  36.00
4,1, 7
48,0.0,0.0,21, 1,15,0.0,21, 1,15
85,70954051.33685301,739104.7014255518,21, 1,15,739104.7014255518,21, 1,15
202,2632452.1119174275,16990.108200000002,21, 2,30,40031.8527222007,21,17,15
538,63989750.44425139,-413797.793262599,21,12,45,1812931.759341599,21,19,45
677,40849783.440525028,0.0,21, 2,30,874517.6291228815,21,16,45
715,0.0,0.0,21, 1,15,0.0,21, 1,15
1,MONTREAL INT'L ANN CLG 1% CONDNS DB=>MWB HVAC Sizing Pass 1,  45.47, -73.75,  -5.00,  36.00
4,1, 7
48,0.0,0.0,21, 1,15,0.0,21, 1,15
85,70954051.33685301,739104.7014255518,21, 1,15,739104.7014255518,21, 1,15
202,2433263.1863761225,16990.108200000002,21, 1,30,34226.61339785569,21,17,15
538,57082841.49588721,-516776.09044730119,21,12,45,1731222.480125005,21,19,45
677,34576644.02336949,0.0,21, 1,30,784808.8170479044,21,16,45
715,0.0,0.0,21, 1,15,0.0,21, 1,15
1,MONTREAL INT'L ANN CLG 2% CONDNS DB=>MWB HVAC Sizing Pass 1,  45.47, -73.75,  -5.00,  36.00
4,1, 7
48,0.0,0.0,21, 1,15,0.0,21, 1,15
85,70954051.33685301,739104.7014255518,21, 1,15,739104.7014255518,21, 1,15
202,2327437.462637221,16990.108200000002,21, 1,15,29944.152849498325,21,17,15
538,51262034.988358419,-610924.5341938994,21,12,45,1662811.7509763833,21,19,45
677,29266914.898291466,0.0,21, 1,15,705832.4415772782,21,16,45
715,0.0,0.0,21, 1,15,0.0,21, 1,15
1,MONTREAL INT'L ANN CLG .4% CONDNS WB=>MDB HVAC Sizing Pass 1,  45.47, -73.75,  -5.00,  36.00
4,1, 7
48,0.0,0.0,21, 1,15,0.0,21, 1,15
85,70954051.33685301,739104.7014255518,21, 1,15,739104.7014255518,21, 1,15
202,2462142.5969567249,16990.108200000002,21, 1,15,36128.66703312666,21,17,15
538,58877571.136604148,-482089.8058721238,21,12,45,1761867.9614058273,21,19,45
677,36458307.46452859,0.0,21, 1,15,825188.355744588,21,16,45
715,0.0,0.0,21, 1,15,0.0,21, 1,15
1,MONTREAL INT'L ANN CLG 1% CONDNS WB=>MDB HVAC Sizing Pass 1,  45.47, -73.75,  -5.00,  36.00
4,1, 7
48,0.0,0.0,21, 1,15,0.0,21, 1,15
85,70954051.33685301,739104.7014255518,21, 1,15,739104.7014255518,21, 1,15
202,2333955.748489874,16990.108200000002,21, 1,15,31007.49016576077,21,17,15
538,52139279.673067618,-589946.3841660337,21,12,45,1702696.9288430673,21,19,30
677,30282309.2419584,0.0,21, 1,15,736982.814498669,21,16,45
715,0.0,0.0,21, 1,15,0.0,21, 1,15
1,MONTREAL INT'L ANN CLG 2% CONDNS WB=>MDB HVAC Sizing Pass 1,  45.47, -73.75,  -5.00,  36.00
4,1, 7
48,0.0,0.0,21, 1,15,0.0,21, 1,15
85,70954051.33685301,739104.7014255518,21, 1,15,739104.7014255518,21, 1,15
202,2253657.3753218685,16990.108200000002,21, 1,15,28108.986948223683,21,17,15
538,47737864.38573035,-664678.334381765,21,12,45,1650005.904540148,21,19,30
677,26250375.67369887,0.0,21, 1,15,677010.824952333,21,16,45
715,0.0,0.0,21, 1,15,0.0,21, 1,15
1,MONTREAL INT'L ANN CLG .4% CONDNS DP=>MDB HVAC Sizing Pass 1,  45.47, -73.75,  -5.00,  36.00
4,1, 7
48,0.0,0.0,21, 1,15,0.0,21, 1,15
85,70954051.33685301,739104.7014255518,21, 1,15,739104.7014255518,21, 1,15
202,2303834.718357467,16990.108200000002,21, 1,15,30367.712728682007,21,17,15
538,50587086.41506313,-614470.2234835493,21,12,45,1694627.7308271174,21,19,30
677,28933761.57546054,0.0,21, 1,15,729308.354875342,21,16,45
715,0.0,0.0,21, 1,15,0.0,21, 1,15
1,MONTREAL INT'L ANN CLG 1% CONDNS DP=>MDB HVAC Sizing Pass 1,  45.47, -73.75,  -5.00,  36.00
4,1, 7
48,0.0,0.0,21, 1,15,0.0,21, 1,15
85,70954051.33685301,739104.7014255518,21, 1,15,739104.7014255518,21, 1,15
202,2231550.6079797346,16990.108200000002,21, 1,15,27885.60333460014,21,17,15
538,47328986.30628155,-679448.1306309032,21,12,45,1648371.3857177653,21,19,30
677,25566991.73688176,0.0,21, 1,15,676192.8338289593,21,16,45
715,0.0,0.0,21, 1,15,0.0,21, 1,15
1,MONTREAL INT'L ANN CLG 2% CONDNS DP=>MDB HVAC Sizing Pass 1,  45.47, -73.75,  -5.00,  36.00
4,1, 7
48,0.0,0.0,21, 1,15,0.0,21, 1,15
85,70954051.33685301,739104.7014255518,21, 1,15,739104.7014255518,21, 1,15
202,2184216.7227082399,16990.108200000002,21, 1,15,26868.078476932882,21, 9,60
538,43227262.74167779,-761304.1530107977,21,12,45,1595061.0994766537,21,19,30
677,21801596.01263226,0.0,21, 1,15,616379.0286023857,21,17,15
715,0.0,0.0,21, 1,15,0.0,21, 1,15
1,MONTREAL INT'L ANN CLG .4% CONDNS ENTH=>MDB HVAC Sizing Pass 1,  45.47, -73.75,  -5.00,  36.00
4,1, 7
48,0.0,0.0,21, 1,15,0.0,21, 1,15
85,70954051.33685301,739104.7014255518,21, 1,15,739104.7014255518,21, 1,15
202,2464207.3224885126,16990.108200000002,21, 1,15,36225.657165139746,21,17,15
538,58961620.339333977,-480595.85820332847,21,12,45,1763357.905233423,21,19,45
677,36540291.96664573,0.0,21, 1,15,826962.9902831928,21,16,45
715,0.0,0.0,21, 1,15,0.0,21, 1,15
1,MONTREAL INT'L ANN CLG 1% CONDNS ENTH=>MDB HVAC Sizing Pass 1,  45.47, -73.75,  -5.00,  36.00
4,1, 7
48,0.0,0.0,21, 1,15,0.0,21, 1,15
85,70954051.33685301,739104.7014255518,21, 1,15,739104.7014255518,21, 1,15
202,2339027.771678105,16990.108200000002,21, 1,15,31309.42518487764,21,17,15
538,52569296.76489194,-582737.3390726372,21,12,45,1636112.2618619775,21,19,30
677,30678321.08324507,0.0,21, 1,15,742692.0649945668,21,16,45
715,0.0,0.0,21, 1,15,0.0,21, 1,15
1,MONTREAL INT'L ANN CLG 2% CONDNS ENTH=>MDB HVAC Sizing Pass 1,  45.47, -73.75,  -5.00,  36.00
4,1, 7
48,0.0,0.0,21, 1,15,0.0,21, 1,15
85,70954051.33685301,739104.7014255518,21, 1,15,739104.7014255518,21, 1,15
202,2253563.427877317,16990.108200000002,21, 1,15,28100.241976975656,21,17,15
538,47728061.288784269,-664860.7242789453,21,12,45,1649808.8348059033,21,19,30
677,26240666.51858777,0.0,21, 1,15,676772.3363502803,21,16,45
715,0.0,0.0,21, 1,15,0.0,21, 1,15
1,MONTREAL INT'L ANN HTG 99.6% CONDNS DB,  45.47, -73.75,  -5.00,  36.00
4,1, 1
48,0.0,0.0,21, 1,15,0.0,21, 1,15
85,4389041.095890413,45719.17808219178,21, 1,15,45719.17808219178,21, 1,15
202,8588030.075392859,89458.6466186757,21, 1,15,89458.6466186757,21, 1,15
538,439295727.0592981,3398876.794160624,21, 1,15,5406341.9349848949,21,24,15
677,0.0,0.0,21, 1,15,0.0,21, 1,15
715,419217042.221166,3253798.9694597569,21, 1,15,4859972.342503684,21,24,60
1,MONTREAL INT'L ANN HTG 99% CONDNS DB,  45.47, -73.75,  -5.00,  36.00
4,1, 1
48,0.0,0.0,21, 1,15,0.0,21, 1,15
85,4389041.095890413,45719.17808219178,21, 1,15,45719.17808219178,21, 1,15
202,8588030.075392859,89458.6466186757,21, 1,15,89458.6466186757,21, 1,15
538,412772608.295962,3131109.1618578454,21, 1,15,5123765.1201476999,21,24,15
677,0.0,0.0,21, 1,15,0.0,21, 1,15
715,392693924.42215016,2986031.3371569777,21, 1,15,4576676.482234197,21,24,60
1,MONTREAL INT'L ANN HUM_N 99.6% CONDNS DP=>MCDB,  45.47, -73.75,  -5.00,  36.00
4,1, 1
48,0.0,0.0,21, 1,15,0.0,21, 1,15
85,4389041.095890413,45719.17808219178,21, 1,15,45719.17808219178,21, 1,15
202,8588030.075392859,89458.6466186757,21, 1,15,89458.6466186757,21, 1,15
538,434351015.68770417,3348593.9894714599,21, 1,15,5353990.904299628,21,24,15
677,0.0,0.0,21, 1,15,0.0,21, 1,15
715,414272331.22841408,3203516.1647705927,21, 1,15,4807578.578168,21,24,60
1,MONTREAL INT'L ANN HUM_N 99% CONDNS DP=>MCDB,  45.47, -73.75,  -5.00,  36.00
4,1, 1
48,0.0,0.0,21, 1,15,0.0,21, 1,15
85,4389041.095890413,45719.17808219178,21, 1,15,45719.17808219178,21, 1,15
202,8588030.075392859,89458.6466186757,21, 1,15,89458.6466186757,21, 1,15
538,410159970.0545426,3104782.3668226806,21, 1,15,5095944.577869277,21,24,15
677,0.0,0.0,21, 1,15,0.0,21, 1,15
715,390081286.6332161,2959704.542121813,21, 1,15,4548836.772958452,21,24,60
1,MONTREAL INT'L ANN HTG WIND 99.6% CONDNS WS=>MCDB,  45.47, -73.75,  -5.00,  36.00
4,1, 1
48,0.0,0.0,21, 1,15,0.0,21, 1,15
85,4389041.095890413,45719.17808219178,21, 1,15,45719.17808219178,21, 1,15
202,8588030.075392859,89458.6466186757,21, 1,15,89458.6466186757,21, 1,15
538,261367261.65325818,1621703.454051763,21, 1,15,3506269.6886192599,21,24,15
677,0.0,0.0,21, 1,15,0.0,21, 1,15
715,241288584.035154,1476625.6293508954,21, 1,15,2957760.021781629,21,24,60
1,MONTREAL INT'L ANN HTG WIND 99% CONDNS WS=>MCDB,  45.47, -73.75,  -5.00,  36.00
4,1, 1
48,0.0,0.0,21, 1,15,0.0,21, 1,15
85,4389041.095890413,45719.17808219178,21, 1,15,45719.17808219178,21, 1,15
202,8588030.075392859,89458.6466186757,21, 1,15,89458.6466186757,21, 1,15
538,287559964.0210563,1879298.6236966237,21, 1,15,3787891.698716713,21,24,15
677,0.0,0.0,21, 1,15,0.0,21, 1,15
715,267481281.57872684,1734220.7989957559,21, 1,15,3239661.3907594017,21,24,60
1,MONTREAL INT'L ANN CLG .4% CONDNS DB=>MWB,  45.47, -73.75,  -5.00,  36.00
4,1, 7
48,0.0,0.0,21, 1,15,0.0,21, 1,15
85,70954051.33685301,739104.7014255518,21, 1,15,739104.7014255518,21, 1,15
202,2632452.1119408,16990.108200000002,21, 2,30,40031.85272254394,21,17,15
538,63989750.447202067,-413797.7932206401,21,12,45,1812931.759353324,21,19,45
677,40849783.443452309,0.0,21, 2,30,874517.6291279207,21,16,45
715,0.0,0.0,21, 1,15,0.0,21, 1,15
1,MONTREAL INT'L ANN CLG 1% CONDNS DB=>MWB,  45.47, -73.75,  -5.00,  36.00
4,1, 7
48,0.0,0.0,21, 1,15,0.0,21, 1,15
85,70954051.33685301,739104.7014255518,21, 1,15,739104.7014255518,21, 1,15
202,2433263.186453583,16990.108200000002,21, 1,30,34226.61340206966,21,17,15
538,57082841.49822811,-516776.09042101117,21,12,45,1731222.4801610192,21,19,45
677,34576644.02563291,0.0,21, 1,30,784808.8171096817,21,16,45
715,0.0,0.0,21, 1,15,0.0,21, 1,15
1,MONTREAL INT'L ANN CLG 2% CONDNS DB=>MWB,  45.47, -73.75,  -5.00,  36.00
4,1, 7
48,0.0,0.0,21, 1,15,0.0,21, 1,15
85,70954051.33685301,739104.7014255518,21, 1,15,739104.7014255518,21, 1,15
202,2327437.4626446308,16990.108200000002,21, 1,15,29944.15284919987,21,17,15
538,51262034.99034726,-610924.5341525575,21,12,45,1662811.7509894984,21,19,45
677,29266914.900273283,0.0,21, 1,15,705832.4415850744,21,16,45
715,0.0,0.0,21, 1,15,0.0,21, 1,15
1,MONTREAL INT'L ANN CLG .4% CONDNS WB=>MDB,  45.47, -73.75,  -5.00,  36.00
4,1, 7
48,0.0,0.0,21, 1,15,0.0,21, 1,15
85,70954051.33685301,739104.7014255518,21, 1,15,739104.7014255518,21, 1,15
202,2462142.597038539,16990.108200000002,21, 1,15,36128.667037150415,21,17,15
538,58877571.13931276,-482089.8058049542,21,12,45,1761867.9614333558,21,19,45
677,36458307.4671554,0.0,21, 1,15,825188.3558035304,21,16,45
715,0.0,0.0,21, 1,15,0.0,21, 1,15
1,MONTREAL INT'L ANN CLG 1% CONDNS WB=>MDB,  45.47, -73.75,  -5.00,  36.00
4,1, 7
48,0.0,0.0,21, 1,15,0.0,21, 1,15
85,70954051.33685301,739104.7014255518,21, 1,15,739104.7014255518,21, 1,15
202,2333955.7485199316,16990.108200000002,21, 1,15,31007.49016584376,21,17,15
538,52139279.676747377,-589946.3841112165,21,12,45,1702696.9288770722,21,19,30
677,30282309.2456077,0.0,21, 1,15,736982.8145300219,21,16,45
715,0.0,0.0,21, 1,15,0.0,21, 1,15
1,MONTREAL INT'L ANN CLG 2% CONDNS WB=>MDB,  45.47, -73.75,  -5.00,  36.00
4,1, 7
48,0.0,0.0,21, 1,15,0.0,21, 1,15
85,70954051.33685301,739104.7014255518,21, 1,15,739104.7014255518,21, 1,15
202,2253657.37531643,16990.108200000002,21, 1,15,28108.986947931862,21,17,15
538,47737864.385213259,-664678.3344251724,21,12,45,1650005.9045542554,21,19,30
677,26250375.67318721,0.0,21, 1,15,677010.8249528264,21,16,45
715,0.0,0.0,21, 1,15,0.0,21, 1,15
1,MONTREAL INT'L ANN CLG .4% CONDNS DP=>MDB,  45.47, -73.75,  -5.00,  36.00
4,1, 7
48,0.0,0.0,21, 1,15,0.0,21, 1,15
85,70954051.33685301,739104.7014255518,21, 1,15,739104.7014255518,21, 1,15
202,2303834.718334833,16990.108200000002,21, 1,15,30367.712727433005,21,17,15
538,50587086.41386989,-614470.2234973435,21,12,45,1694627.7307998776,21,19,30
677,28933761.574289957,0.0,21, 1,15,729308.3548457578,21,16,45
715,0.0,0.0,21, 1,15,0.0,21, 1,15
1,MONTREAL INT'L ANN CLG 1% CONDNS DP=>MDB,  45.47, -73.75,  -5.00,  36.00
4,1, 7
48,0.0,0.0,21, 1,15,0.0,21, 1,15
85,70954051.33685301,739104.7014255518,21, 1,15,739104.7014255518,21, 1,15
202,2231550.607997763,16990.108200000002,21, 1,15,27885.60333665739,21,17,15
538,47328986.30840842,-679448.1305849421,21,12,45,1648371.3857412243,21,19,30
677,25566991.738990629,0.0,21, 1,15,676192.833888207,21,16,45
715,0.0,0.0,21, 1,15,0.0,21, 1,15
1,MONTREAL INT'L ANN CLG 2% CONDNS DP=>MDB,  45.47, -73.75,  -5.00,  36.00
4,1, 7
48,0.0,0.0,21, 1,15,0.0,21, 1,15
85,70954051.33685301,739104.7014255518,21, 1,15,739104.7014255518,21, 1,15
202,2184216.7227082399,16990.108200000002,21, 1,15,26868.078476932882,21, 9,60
538,43227262.74621785,-761304.1529313299,21,12,45,1595061.0995600427,21,19,30
677,21801596.017171816,0.0,21, 1,15,616379.0286680851,21,17,15
715,0.0,0.0,21, 1,15,0.0,21, 1,15
1,MONTREAL INT'L ANN CLG .4% CONDNS ENTH=>MDB,  45.47, -73.75,  -5.00,  36.00
4,1, 7
48,0.0,0.0,21, 1,15,0.0,21, 1,15
85,70954051.33685301,739104.7014255518,21, 1,15,739104.7014255518,21, 1,15
202,2464207.322450531,16990.108200000002,21, 1,15,36225.65716327859,21,17,15
538,58961620.339134167,-480595.8582074823,21,12,45,1763357.9052102508,21,19,45
677,36540291.96648394,0.0,21, 1,15,826962.990257969,21,16,45
715,0.0,0.0,21, 1,15,0.0,21, 1,15
1,MONTREAL INT'L ANN CLG 1% CONDNS ENTH=>MDB,  45.47, -73.75,  -5.00,  36.00
4,1, 7
48,0.0,0.0,21, 1,15,0.0,21, 1,15
85,70954051.33685301,739104.7014255518,21, 1,15,739104.7014255518,21, 1,15
202,2339027.7717262136,16990.108200000002,21, 1,15,31309.425187874032,21,17,15
538,52569296.76849555,-582737.3390221135,21,12,45,1636112.2599166318,21,19,30
677,30678321.08680081,0.0,21, 1,15,742692.0650482765,21,16,45
715,0.0,0.0,21, 1,15,0.0,21, 1,15
1,MONTREAL INT'L ANN CLG 2% CONDNS ENTH=>MDB,  45.47, -73.75,  -5.00,  36.00
4,1, 7
48,0.0,0.0,21, 1,15,0.0,21, 1,15
85,70954051.33685301,739104.7014255518,21, 1,15,739104.7014255518,21, 1,15
202,2253563.427849272,16990.108200000002,21, 1,15,28100.241974199176,21,17,15
538,47728061.28629745,-664860.7242856672,21,12,45,1649808.8347324376,21,19,30
677,26240666.516128996,0.0,21, 1,15,676772.3362968129,21,16,45
715,0.0,0.0,21, 1,15,0.0,21, 1,15
1,ANNUAL,  45.47, -73.75,  -5.00,  36.00
4,31, 1
48,219639774.06886206,14170.308004442802, 1, 1,15,226724.92807108485, 1,21,15
85,1166566162.6372848,95718.73441333045, 1, 4,15,876438.6073308148, 1,20,15
202,258578669.91932986,16990.108200000002, 1,10,30,89458.6466186757, 1, 1,15
538,9095133247.995764,-1627857.5329372143, 1,12,30,5648767.70098297,26, 8,15
677,0.0,0.0, 1, 1,15,0.0, 1, 1,15
715,8388807343.549925,0.0, 1,10,30,5101200.193983088,26, 4,60
4,59, 2
48,198384312.06219838,14170.308004442802, 1, 1,15,226724.92807108485, 1,21,15
85,1053672663.0272216,95718.73441333045, 1, 4,15,876438.6073308148, 1,20,15
202,224097236.82939217,16990.108200000002, 8,17,15,89458.6466186757, 1, 1,15
538,7156538668.8310999,-1481969.5336364685, 8,14,60,5673887.93384281,26, 7,30
677,0.0,0.0, 1, 1,15,0.0, 1, 1,15
715,6945613305.350466,0.0, 8,17,15,5145583.397287777,26, 4,60
4,90, 3
48,219639774.06886206,14170.308004442802, 1, 1,15,226724.92807108485, 1,21,15
85,1166566162.6372848,95718.73441333045, 1, 4,15,876438.6073308148, 1,20,15
202,203248649.56503455,16990.108200000002, 4,17,15,89458.6466186757, 1, 1,15
538,4737473868.09612,-2242149.7178732987,26,13,60,4746105.170532306,11, 7,15
677,0.0,0.0, 1, 1,15,0.0, 1, 1,15
715,4712004413.615638,0.0, 4,17,15,4238334.996499143,18, 4,60
4,120, 4
48,212554620.06664083,14170.308004442802, 1, 1,15,226724.92807108485, 1,21,15
85,1128934996.100597,95718.73441333045, 1, 4,15,876438.6073308148, 1,20,15
202,98196045.78419395,16990.108200000002, 4,12,30,89458.6466186757, 3,24,60
538,1987801608.268131,-2084866.4688803356,12,13,30,3399998.381348245, 8, 6,30
677,0.0,0.0, 1, 1,15,0.0, 1, 1,15
715,1706202508.1773167,0.0, 4,12,30,3021836.7449855015, 8, 4,60
4,151, 5
48,219639774.06886206,14170.308004442802, 1, 1,15,226724.92807108485, 1,21,15
85,1166566162.6372848,95718.73441333045, 1, 4,15,876438.6073308148, 1,20,15
202,59735370.53610158,16990.108200000002, 1, 1,15,50754.0693219571, 4, 4,45
538,502073440.19050219,-1765715.653627329,15,12,45,1807511.3770315808,19,19,30
677,78003809.45478927,0.0, 1, 1,15,822064.5803345166,19,18,15
715,208429975.55509887,0.0, 1, 1,15,1413471.1841429035, 4, 4,45
4,181, 6
48,212554620.06664083,14170.308004442802, 1, 1,15,226724.92807108485, 1,21,15
85,1128934996.100597,95718.73441333045, 1, 4,15,876438.6073308148, 1,20,15
202,63909871.81026668,16990.108200000002, 1, 1,15,45477.16135907375,10,19,30
538,699459217.5359972,-1481639.9024243293, 4,12,30,1982116.2029102199,10,20,15
677,491075576.0375262,0.0, 1, 1,15,891887.3029937269,10,19,30
715,0.0,0.0, 1, 1,15,0.0, 1, 1,15
4,212, 7
48,219639774.06886206,14170.308004442802, 1, 1,15,226724.92807108485, 1,21,15
85,1166566162.6372848,95718.73441333045, 1, 4,15,876438.6073308148, 1,20,15
202,74149879.33026694,16990.108200000002, 1, 1,15,89458.6466186757,20,18,15
538,1039110035.3401818,-1516661.001613832,26,12,30,2366865.102499983,20,20,15
677,787511717.5486568,0.0, 1, 1,15,1273565.2662103456,20,18,15
715,0.0,0.0, 1, 1,15,0.0, 1, 1,15
4,243, 8
48,219639774.06886206,14170.308004442802, 1, 1,15,226724.92807108485, 1,21,15
85,1166566162.6372848,95718.73441333045, 1, 4,15,876438.6073308148, 1,20,15
202,72413261.97415185,16990.108200000002, 1, 1,15,83273.11708894032,15,18,15
538,975830770.9051275,-1624911.9510147549,27,11,30,2197640.61973649,15,19,15
677,731329953.5614245,0.0, 1, 1,15,1198238.539582609,15,18,15
715,0.0,0.0, 1, 1,15,0.0, 1, 1,15
4,273, 9
48,212554620.06664083,14170.308004442802, 1, 1,15,226724.92807108485, 1,21,15
85,1128934996.100597,95718.73441333045, 1, 4,15,876438.6073308148, 1,20,15
202,55215832.33369122,16990.108200000002, 1, 1,15,43136.60874711296, 1,18,15
538,351413068.0392962,-1898018.8370898476,23,13,15,1803202.0806305919, 1,19,15
677,178860627.4297861,0.0, 1, 1,15,863673.8163110458, 1,18,15
715,0.0,0.0, 1, 1,15,0.0, 1, 1,15
4,304,10
48,219639774.06886206,14170.308004442802, 1, 1,15,226724.92807108485, 1,21,15
85,1166566162.6372848,95718.73441333045, 1, 4,15,876438.6073308148, 1,20,15
202,73302991.43124502,16990.108200000002, 1, 1,15,89458.6466186757,10, 2,15
538,1230513442.054099,-2026584.42171943,11,12,60,2979706.251578138,31, 7,30
677,282765.4255614266,0.0, 1, 1,15,83149.22063146398, 1,17,30
715,779082009.7857277,0.0, 1, 1,15,2517429.3789377056,31, 4,60
4,334,11
48,212554620.06664083,14170.308004442802, 1, 1,15,226724.92807108485, 1,21,15
85,1128934996.100597,95718.73441333045, 1, 4,15,876438.6073308148, 1,20,15
202,151177350.3449113,16990.108200000002, 1,12,60,89458.6466186757, 2,22,15
538,4170420187.1990506,-1974897.6751705972, 4,12,30,3885148.5406681934,19, 7,15
677,0.0,0.0, 1, 1,15,0.0, 1, 1,15
715,3346957386.5184547,0.0, 1,12,60,3441793.43425125,19, 4,60
4,365,12
48,219639774.06886206,14170.308004442802, 1, 1,15,226724.92807108485, 1,21,15
85,1166566162.6372848,95718.73441333045, 1, 4,15,876438.6073308148, 1,20,15
202,248890978.49110426,26868.078476932882, 4,14,60,89458.6466186757, 1, 1,15
538,8739650762.686789,-1540026.3351298909,16,13,30,4972393.970175003,19, 7,15
677,0.0,0.0, 1, 1,15,0.0, 1, 1,15
715,7806609023.574618,174951.62716706925,16,15,15,4572219.018536167,19, 4,60
End of Data
 Number of Records Written=         288
