Program Version,EnergyPlus, Version 9.5.0-de239b2e5f, YMD=2024.12.07 12:37
1,5,Environment Title[],Latitude[deg],Longitude[deg],Time Zone[],Elevation[m]
2,8,Day of Simulation[],Month[],Day of Month[],DST Indicator[1=yes 0=no],Hour[],StartMinute[],EndMinute[],DayType
3,5,Cumulative Day of Simulation[],Month[],Day of Month[],DST Indicator[1=yes 0=no],DayType  ! When Daily Meters Requested
4,2,Cumulative Days of Simulation[],Month[]  ! When Monthly Meters Requested
5,1,Cumulative Days of Simulation[] ! When Run Period Meters Requested
6,1,Calendar Year of Simulation[] ! When Annual Meters Requested
51,9,InteriorLights:Electricity [J] !Monthly [Value,Min,Day,Hour,Minute,Max,Day,Hour,Minute]
88,9,InteriorEquipment:Electricity [J] !Monthly [Value,Min,Day,Hour,Minute,Max,Day,Hour,Minute]
208,9,Fans:Electricity [J] !Monthly [Value,Min,Day,Hour,Minute,Max,Day,Hour,Minute]
730,9,Heating:Electricity [J] !Monthly [Value,Min,Day,Hour,Minute,Max,Day,Hour,Minute]
692,9,Cooling:Electricity [J] !Monthly [Value,Min,Day,Hour,Minute,Max,Day,Hour,Minute]
545,9,ElectricityNet:Facility [J] !Monthly [Value,Min,Day,Hour,Minute,Max,Day,Hour,Minute]
End of Data Dictionary
1,ALBUQUERQUE INTL SUNPORT ANN HTG 99.6% CONDNS DB HVAC Sizing Pass 1,  35.04,-106.62,  -7.00,1619.00
4,1,12
51,0.0,0.0,21, 1,15,0.0,21, 1,15
88,3550684.931506854,36986.30136986301,21, 1,15,36986.30136986301,21, 1,15
208,17613721.502770246,183352.37944823208,21, 1,15,186325.64838323208,21, 7,15
545,797507151.7645125,7182228.422328834,21, 1,15,8776818.314769946,21,24,60
692,0.0,0.0,21, 1,15,0.0,21, 1,15
730,775427445.3302351,6951989.741510739,21, 1,15,8546579.633951853,21,24,60
1,ALBUQUERQUE INTL SUNPORT ANN HTG 99% CONDNS DB HVAC Sizing Pass 1,  35.04,-106.62,  -7.00,1619.00
4,1,12
51,0.0,0.0,21, 1,15,0.0,21, 1,15
88,3550684.931506854,36986.30136986301,21, 1,15,36986.30136986301,21, 1,15
208,17613721.502770246,183352.37944823208,21, 1,15,186325.64838323208,21, 7,15
545,711081642.3793388,6290268.684141586,21, 1,15,7872190.9764428739,21,24,60
692,0.0,0.0,21, 1,15,0.0,21, 1,15
730,689001935.9450615,6060030.003323491,21, 1,15,7641952.295624778,21,24,60
1,ALBUQUERQUE INTL SUNPORT ANN CLG .4% CONDNS DB=>MWB HVAC Sizing Pass 1,  35.04,-106.62,  -7.00,1619.00
4,1, 7
51,0.0,0.0,21, 1,15,0.0,21, 1,15
88,70115696.77274309,730371.8413827395,21, 1,15,730371.8413827395,21, 1,15
208,1111550.5730798878,0.0,21, 1,15,27965.48478363382,21,19,15
545,38244797.91598848,-971454.9473500106,21,11,45,1327031.2930432249,21,18,60
692,20589245.99040434,0.0,21, 1,15,748234.7613920231,21,17,30
730,0.0,0.0,21, 1,15,0.0,21, 1,15
1,ALBUQUERQUE INTL SUNPORT ANN CLG 1% CONDNS DB=>MWB HVAC Sizing Pass 1,  35.04,-106.62,  -7.00,1619.00
4,1, 7
51,0.0,0.0,21, 1,15,0.0,21, 1,15
88,70115696.77274309,730371.8413827395,21, 1,15,730371.8413827395,21, 1,15
208,1191655.4340809745,0.0,21, 1,15,27965.48478363382,21,19,15
545,38832290.826549578,-886194.1339168574,21,14,60,1112913.3928978777,21,18,60
692,21437808.014146568,0.0,21, 1,15,951332.8944663269,21,14,45
730,0.0,0.0,21, 1,15,0.0,21, 1,15
1,ALBUQUERQUE INTL SUNPORT ANN HTG 99.6% CONDNS DB,  35.04,-106.62,  -7.00,1619.00
4,1,12
51,0.0,0.0,21, 1,15,0.0,21, 1,15
88,3550684.931506854,36986.30136986301,21, 1,15,36986.30136986301,21, 1,15
208,17613721.502770246,183352.37944823208,21, 1,15,186325.64838323208,21, 7,15
545,797597659.7590313,7183310.878262667,21, 1,15,8777704.751200045,21,24,60
692,0.0,0.0,21, 1,15,0.0,21, 1,15
730,775517953.3247541,6953072.197444571,21, 1,15,8547466.07038195,21,24,60
1,ALBUQUERQUE INTL SUNPORT ANN HTG 99% CONDNS DB,  35.04,-106.62,  -7.00,1619.00
4,1,12
51,0.0,0.0,21, 1,15,0.0,21, 1,15
88,3550684.931506854,36986.30136986301,21, 1,15,36986.30136986301,21, 1,15
208,17613721.502770246,183352.37944823208,21, 1,15,186325.64838323208,21, 7,15
545,711081610.7530679,6290268.11159636,21, 1,15,7872190.669267519,21,24,60
692,0.0,0.0,21, 1,15,0.0,21, 1,15
730,689001904.3187908,6060029.430778264,21, 1,15,7641951.988449424,21,24,60
1,ALBUQUERQUE INTL SUNPORT ANN CLG .4% CONDNS DB=>MWB,  35.04,-106.62,  -7.00,1619.00
4,1, 7
51,0.0,0.0,21, 1,15,0.0,21, 1,15
88,70115696.77274309,730371.8413827395,21, 1,15,730371.8413827395,21, 1,15
208,1111550.5730798878,0.0,21, 1,15,27965.48478363382,21,19,15
545,38244797.9041373,-971454.9473500106,21,11,45,1327031.2928053749,21,18,60
692,20589245.978553155,0.0,21, 1,15,748234.7611415493,21,17,30
730,0.0,0.0,21, 1,15,0.0,21, 1,15
1,ALBUQUERQUE INTL SUNPORT ANN CLG 1% CONDNS DB=>MWB,  35.04,-106.62,  -7.00,1619.00
4,1, 7
51,0.0,0.0,21, 1,15,0.0,21, 1,15
88,70115696.77274309,730371.8413827395,21, 1,15,730371.8413827395,21, 1,15
208,1191655.4340810045,0.0,21, 1,15,27965.48478363382,21,19,15
545,38832290.82656533,-886194.1339167095,21,14,60,1112913.3928978549,21,18,60
692,21437808.0141623,0.0,21, 1,15,951332.8944668005,21,14,45
730,0.0,0.0,21, 1,15,0.0,21, 1,15
1,ANNUAL,  35.04,-106.62,  -7.00,1619.00
4,31, 1
51,0.0,0.0, 1, 1,15,0.0, 1, 1,15
88,110071232.87670824,36986.30136986301, 1, 1,15,36986.30136986301, 1, 1,15
208,200506730.98823605,0.0, 1,11,45,186325.64838323208, 1, 7,15
545,6574427807.758682,-2536033.3938393325,19,13,30,18212009.145690457,20, 1,30
692,0.0,0.0, 1, 1,15,0.0, 1, 1,15
730,7818920732.088592,0.0, 1,11,45,17981770.46487236,20, 1,30
4,59, 2
51,0.0,0.0, 1, 1,15,0.0, 1, 1,15
88,99419178.08218834,36986.30136986301, 1, 1,15,36986.30136986301, 1, 1,15
208,212844560.44256393,0.0, 4,16,45,186325.64838323208, 1, 7,15
545,6808833280.426183,-2444584.1837203188,19,13,45,10018439.582250532, 5, 2,60
692,0.0,0.0, 1, 1,15,0.0, 1, 1,15
730,8065296185.173483,0.0, 4,16,45,9788200.901432438, 5, 2,60
4,90, 3
51,0.0,0.0, 1, 1,15,0.0, 1, 1,15
88,110071232.87670824,36986.30136986301, 1, 1,15,36986.30136986301, 1, 1,15
208,105052754.55480507,0.0, 1,14,30,186325.64838323208, 1, 7,15
545,3022049226.121459,-2435331.7042316545,10,13,30,7738845.012452349, 4, 6,60
692,0.0,0.0, 1, 1,15,0.0, 1, 1,15
730,4457692391.40433,0.0, 1,14,30,7508606.331634253, 4, 6,60
4,120, 4
51,0.0,0.0, 1, 1,15,0.0, 1, 1,15
88,106520547.9452016,36986.30136986301, 1, 1,15,36986.30136986301, 1, 1,15
208,33946304.700657557,0.0, 1, 9,30,96147.96806103298, 8, 2,60
545,-250058846.67630277,-2254684.1258691467,24,12,60,4142657.116136587, 7,24,60
692,18275869.834945065,0.0, 1, 1,15,351823.28543483247,13,17,60
730,1293305821.7391377,0.0, 1, 9,30,3999668.7907768276, 7,24,60
4,151, 5
51,0.0,0.0, 1, 1,15,0.0, 1, 1,15
88,110071232.87670824,36986.30136986301, 1, 1,15,36986.30136986301, 1, 1,15
208,24740434.75387663,0.0, 1, 1,15,27965.48478363382, 1, 7,15
545,-885085379.8384842,-2165731.0700760635, 6,13,30,2190648.0478049425, 7, 5,60
692,177153432.70862223,0.0, 1, 1,15,1141687.5272244276,19,17,60
730,352057059.4878502,0.0, 1, 1,15,2118769.5305864454, 7, 5,60
4,181, 6
51,0.0,0.0, 1, 1,15,0.0, 1, 1,15
88,106520547.9452016,36986.30136986301, 1, 1,15,36986.30136986301, 1, 1,15
208,39652475.0549694,0.0, 1, 1,15,94356.80464719517,29,15,60
545,-112116286.53279832,-1977140.7798730387, 9,13,30,2013447.3763404946,28,18,15
692,1092080446.4188903,0.0, 1, 1,15,2323152.1042259566,29,15,60
730,28290596.412121826,0.0, 1, 1,15,1071440.3508485472, 9, 5,45
4,212, 7
51,0.0,0.0, 1, 1,15,0.0, 1, 1,15
88,110071232.87670824,36986.30136986301, 1, 1,15,36986.30136986301, 1, 1,15
208,49015506.97745409,0.0, 1, 1,15,94526.58731357372, 4,17,60
545,218394728.4629241,-1332794.905884938,25,10,60,1994102.163031242, 4,18,15
692,1520548915.9239417,0.0, 1, 1,15,2225503.218906914, 4,17,60
730,0.0,0.0, 1, 1,15,0.0, 1, 1,15
4,243, 8
51,0.0,0.0, 1, 1,15,0.0, 1, 1,15
88,110071232.87670824,36986.30136986301, 1, 1,15,36986.30136986301, 1, 1,15
208,47417283.38137679,0.0, 1, 1,15,62888.454903299804,20,17,60
545,33137596.437696324,-1587018.4822217206,30,11,45,1739986.9383985934,20,18,45
692,1474415705.2706376,0.0, 1, 1,15,1982618.281290698,20,17,60
730,0.0,0.0, 1, 1,15,0.0, 1, 1,15
4,273, 9
51,0.0,0.0, 1, 1,15,0.0, 1, 1,15
88,106520547.9452016,36986.30136986301, 1, 1,15,36986.30136986301, 1, 1,15
208,26421570.370315799,0.0, 1, 1,15,30346.299318974558, 3,14,60
545,-825406939.0376121,-2164022.491848505,24,13,30,1220192.9315631816, 2,18,45
692,639363676.6969713,0.0, 1, 1,15,1577848.935299579, 3,14,60
730,0.0,0.0, 1, 1,15,0.0, 1, 1,15
4,304,10
51,0.0,0.0, 1, 1,15,0.0, 1, 1,15
88,110071232.87670824,36986.30136986301, 1, 1,15,36986.30136986301, 1, 1,15
208,43540988.13682785,0.0, 1, 1,15,186325.64838323208,25, 7,15
545,-6158492.561268545,-2430237.133943899,13,12,30,6044770.530775406,26, 4,60
692,144236653.4567542,0.0, 1, 1,15,1041095.0935610979, 1,16,60
730,1393670211.4957989,0.0, 1, 1,15,5814531.849957311,26, 4,60
4,334,11
51,0.0,0.0, 1, 1,15,0.0, 1, 1,15
88,106520547.9452016,36986.30136986301, 1, 1,15,36986.30136986301, 1, 1,15
208,100306196.6252587,0.0, 1, 1,15,186325.64838323208,12, 7,15
545,3120416544.0467927,-2502539.4782746618, 1,12,60,8440418.183716322,26, 7,60
692,0.0,0.0, 1, 1,15,0.0, 1, 1,15
730,4487229983.577824,0.0, 1, 1,15,8247238.445083175,26, 7,60
4,365,12
51,0.0,0.0, 1, 1,15,0.0, 1, 1,15
88,110071232.87670824,36986.30136986301, 1, 1,15,36986.30136986301, 1, 1,15
208,269473710.38390579,0.0, 1,15,60,186325.64838323208, 4, 7,15
545,8749265868.382327,-2275185.636468732,30,13,45,10784731.014501032,14, 4,60
692,0.0,0.0, 1, 1,15,0.0, 1, 1,15
730,9985090859.970219,0.0, 1,15,60,10554492.333682938,14, 4,60
End of Data
 Number of Records Written=         120
