Program Version,EnergyPlus, Version 9.5.0-de239b2e5f, YMD=2024.12.07 23:02
1,5,Environment Title[],Latitude[deg],Longitude[deg],Time Zone[],Elevation[m]
2,8,Day of Simulation[],Month[],Day of Month[],DST Indicator[1=yes 0=no],Hour[],StartMinute[],EndMinute[],DayType
3,5,Cumulative Day of Simulation[],Month[],Day of Month[],DST Indicator[1=yes 0=no],DayType  ! When Daily Meters Requested
4,2,Cumulative Days of Simulation[],Month[]  ! When Monthly Meters Requested
5,1,Cumulative Days of Simulation[] ! When Run Period Meters Requested
6,1,Calendar Year of Simulation[] ! When Annual Meters Requested
50,9,InteriorLights:Electricity [J] !Monthly [Value,Min,Day,Hour,Minute,Max,Day,Hour,Minute]
87,9,InteriorEquipment:Electricity [J] !Monthly [Value,Min,Day,Hour,Minute,Max,Day,Hour,Minute]
207,9,Fans:Electricity [J] !Monthly [Value,Min,Day,Hour,Minute,Max,Day,Hour,Minute]
725,9,Heating:Electricity [J] !Monthly [Value,Min,Day,Hour,Minute,Max,Day,Hour,Minute]
687,9,Cooling:Electricity [J] !Monthly [Value,Min,Day,Hour,Minute,Max,Day,Hour,Minute]
543,9,ElectricityNet:Facility [J] !Monthly [Value,Min,Day,Hour,Minute,Max,Day,Hour,Minute]
End of Data Dictionary
1,ALBUQUERQUE INTL SUNPORT ANN HTG 99.6% CONDNS DB HVAC Sizing Pass 1,  35.04,-106.62,  -7.00,1619.00
4,1,12
50,0.0,0.0,21, 1,15,0.0,21, 1,15
87,3550684.931506854,36986.30136986301,21, 1,15,36986.30136986301,21, 1,15
207,17984552.505924204,187215.2023977517,21, 1,15,190188.4713327517,21, 7,15
543,821419917.7486591,7386929.430295851,21, 1,15,9373609.275352601,21,24,30
687,0.0,0.0,21, 1,15,0.0,21, 1,15
725,792785793.6795988,7152827.926528237,21, 1,15,8731986.255450543,21,24,45
1,ALBUQUERQUE INTL SUNPORT ANN HTG 99% CONDNS DB HVAC Sizing Pass 1,  35.04,-106.62,  -7.00,1619.00
4,1,12
50,0.0,0.0,21, 1,15,0.0,21, 1,15
87,3550684.931506854,36986.30136986301,21, 1,15,36986.30136986301,21, 1,15
207,17984552.505924204,187215.2023977517,21, 1,15,190188.4713327517,21, 7,15
543,734962366.9415276,6494428.8945434759,21, 1,15,8468780.233412633,21,24,30
687,0.0,0.0,21, 1,15,0.0,21, 1,15
725,706328242.8724674,6260327.39077586,21, 1,15,7827102.833771131,21,24,45
1,ALBUQUERQUE INTL SUNPORT ANN CLG .4% CONDNS DB=>MWB HVAC Sizing Pass 1,  35.04,-106.62,  -7.00,1619.00
4,1, 7
50,0.0,0.0,21, 1,15,0.0,21, 1,15
87,70115696.77274309,730371.8413827395,21, 1,15,730371.8413827395,21, 1,15
207,1721649.0390435416,0.0,21, 1,30,28492.014655948387,21,19,15
543,68205871.8735237,-285966.5196243979,21,11,45,2001205.8382795568,21,19,45
687,44993328.99557215,0.0,21, 1,30,1180973.234451919,21,16,15
725,0.0,0.0,21, 1,15,0.0,21, 1,15
1,ALBUQUERQUE INTL SUNPORT ANN CLG 1% CONDNS DB=>MWB HVAC Sizing Pass 1,  35.04,-106.62,  -7.00,1619.00
4,1, 7
50,0.0,0.0,21, 1,15,0.0,21, 1,15
87,70115696.77274309,730371.8413827395,21, 1,15,730371.8413827395,21, 1,15
207,1568536.5647178514,0.0,21, 1,15,28492.014655948387,21,19,15
543,59468707.302550587,-440076.63277390968,21,12,15,1923129.4743441349,21,19,30
687,36750455.71486468,0.0,21, 1,15,1027557.7525925773,21,17,30
725,0.0,0.0,21, 1,15,0.0,21, 1,15
1,ALBUQUERQUE INTL SUNPORT ANN HTG 99.6% CONDNS DB,  35.04,-106.62,  -7.00,1619.00
4,1,12
50,0.0,0.0,21, 1,15,0.0,21, 1,15
87,3550684.931506854,36986.30136986301,21, 1,15,36986.30136986301,21, 1,15
207,17984552.505924204,187215.2023977517,21, 1,15,190188.4713327517,21, 7,15
543,821510507.8003802,7388013.317615801,21, 1,15,9374497.262597727,21,24,30
687,0.0,0.0,21, 1,15,0.0,21, 1,15
725,792876383.7313202,7153911.813848186,21, 1,15,8732874.219113065,21,24,45
1,ALBUQUERQUE INTL SUNPORT ANN HTG 99% CONDNS DB,  35.04,-106.62,  -7.00,1619.00
4,1,12
50,0.0,0.0,21, 1,15,0.0,21, 1,15
87,3550684.931506854,36986.30136986301,21, 1,15,36986.30136986301,21, 1,15
207,17984552.505924204,187215.2023977517,21, 1,15,190188.4713327517,21, 7,15
543,734962335.4896098,6494428.518259857,21, 1,15,8468779.925962452,21,24,30
687,0.0,0.0,21, 1,15,0.0,21, 1,15
725,706328211.4205499,6260327.014492242,21, 1,15,7827102.5263239969,21,24,45
1,ALBUQUERQUE INTL SUNPORT ANN CLG .4% CONDNS DB=>MWB,  35.04,-106.62,  -7.00,1619.00
4,1, 7
50,0.0,0.0,21, 1,15,0.0,21, 1,15
87,70115696.77274309,730371.8413827395,21, 1,15,730371.8413827395,21, 1,15
207,1721649.0390435416,0.0,21, 1,30,28492.014655948387,21,19,15
543,68205871.85864416,-285966.5198732915,21,11,45,2001205.838072856,21,19,45
687,44993328.980693388,0.0,21, 1,30,1180973.234211635,21,16,15
725,0.0,0.0,21, 1,15,0.0,21, 1,15
1,ALBUQUERQUE INTL SUNPORT ANN CLG 1% CONDNS DB=>MWB,  35.04,-106.62,  -7.00,1619.00
4,1, 7
50,0.0,0.0,21, 1,15,0.0,21, 1,15
87,70115696.77274309,730371.8413827395,21, 1,15,730371.8413827395,21, 1,15
207,1568536.5647178514,0.0,21, 1,15,28492.014655948387,21,19,15
543,59468707.30296286,-440076.63276378126,21,12,15,1923129.4743494676,21,19,30
687,36750455.71527693,0.0,21, 1,15,1027557.752599013,21,17,30
725,0.0,0.0,21, 1,15,0.0,21, 1,15
1,ANNUAL,  35.04,-106.62,  -7.00,1619.00
4,31, 1
50,356558074.78712478,23003.746760459093, 1, 1,15,368059.9481673455, 1,21,15
87,1446972620.5928386,92506.92372980165, 1, 4,15,1016285.5056496044, 1,20,15
207,266536384.56448565,0.0, 1,11,30,190188.4713327517, 1, 7,15
543,10019366247.063202,-1840090.6603774552,26,14,30,10291795.359531254,16,18,60
687,0.0,0.0, 1, 1,15,0.0, 1, 1,15
725,9407319675.446352,0.0, 1,11,30,9516865.069057262,17, 4,60
4,59, 2
50,322052454.64643278,23003.746760459093, 1, 1,15,368059.9481673455, 1,21,15
87,1306943012.14837,92506.92372980165, 1, 4,15,1016285.5056496044, 1,20,15
207,197450686.92800776,0.0, 4,16,30,190188.4713327517, 1, 7,15
543,7634355878.991863,-1914925.8645411533,19,14,15,9950846.419434518, 4, 7,15
687,0.0,0.0, 1, 1,15,0.0, 1, 1,15
725,7289242190.411854,0.0, 4,16,30,9573824.092912773, 5, 2,60
4,90, 3
50,356558074.78712478,23003.746760459093, 1, 1,15,368059.9481673455, 1,21,15
87,1446972620.5928386,92506.92372980165, 1, 4,15,1016285.5056496044, 1,20,15
207,92417465.89489565,0.0, 1,12,15,190188.4713327517, 1, 7,15
543,4219804685.11658,-1912189.9974045729,10,13,15,7830694.979979637, 4, 7,15
687,0.0,0.0, 1, 1,15,0.0, 1, 1,15
725,3877865836.484479,0.0, 1,12,15,7157412.65525413, 4, 3,60
4,120, 4
50,345056201.4068941,23003.746760459093, 1, 1,15,368059.9481673455, 1,21,15
87,1400296084.4446824,92506.92372980165, 1, 4,15,1016285.5056496044, 1,20,15
207,31896017.23885376,0.0, 1, 8,60,82069.01748513108, 8, 2,60
543,1241972532.659124,-1721504.2480015599, 6,13,15,4457409.794814027, 7,22,60
687,77672130.58543138,0.0, 1, 1,15,656390.9554979703,13,18,15
725,995522870.4553615,0.0, 1, 8,60,3871974.842154757, 8, 2,60
4,151, 5
50,356558074.78712478,23003.746760459093, 1, 1,15,368059.9481673455, 1,21,15
87,1446972620.5928386,92506.92372980165, 1, 4,15,1016285.5056496044, 1,20,15
207,29540913.58800974,0.0, 1, 1,15,28492.014655948387, 1, 7,15
543,978794702.5357794,-1634286.1981010764, 6,13,30,2508944.3497946194,19,19,15
687,364279067.1787845,0.0, 1, 1,15,1380730.5818290974,19,18,15
725,233793725.98295859,0.0, 1, 1,15,1841888.8665027153, 7, 5,60
4,181, 6
50,345056201.4068941,23003.746760459093, 1, 1,15,368059.9481673455, 1,21,15
87,1400296084.4446824,92506.92372980165, 1, 4,15,1016285.5056496044, 1,20,15
207,48485270.74696121,0.0, 1, 1,15,106752.01735338199,29,15,60
543,1942449958.7522417,-1445695.907898052, 9,13,30,3406921.204767132,28,19,15
687,1423137252.641134,0.0, 1, 1,15,2439249.2666022975,29,15,60
725,10498882.452384072,0.0, 1, 1,15,824227.4763766669, 9, 5,45
4,212, 7
50,356558074.78712478,23003.746760459093, 1, 1,15,368059.9481673455, 1,21,15
87,1446972620.5928386,92506.92372980165, 1, 4,15,1016285.5056496044, 1,20,15
207,63334765.126901607,0.0, 1, 1,45,117272.26559580447, 4,17,60
543,2566186615.058776,-290830.62220190846, 1,10,30,3395963.4837373818, 4,19,15
687,2063804259.4075926,0.0, 1, 1,45,2409098.556598383, 4,17,60
725,0.0,0.0, 1, 1,15,0.0, 1, 1,15
4,243, 8
50,356558074.78712478,23003.746760459093, 1, 1,15,368059.9481673455, 1,21,15
87,1446972620.5928386,92506.92372980165, 1, 4,15,1016285.5056496044, 1,20,15
207,56760906.436345119,0.0, 1, 1,15,81748.1941118067,20,18,15
543,2212627867.383327,-724761.2962691165,30,12,30,3186054.4275720266,20,19,15
687,1854345050.5864137,0.0, 1, 1,15,2170344.7373503388,20,18,15
725,0.0,0.0, 1, 1,15,0.0, 1, 1,15
4,273, 9
50,345056201.4068941,23003.746760459093, 1, 1,15,368059.9481673455, 1,21,15
87,1400296084.4446824,92506.92372980165, 1, 4,15,1016285.5056496044, 1,20,15
207,36789654.173938628,0.0, 1, 1,15,35610.94487292915, 3,15,15
543,1214480423.2063647,-1431591.0614524107, 9,12,15,2658082.6407992758, 2,19,15
687,936414597.8068194,0.0, 1, 1,15,1664839.3714515367, 3,14,60
725,0.0,0.0, 1, 1,15,0.0, 1, 1,15
4,304,10
50,356558074.78712478,23003.746760459093, 1, 1,15,368059.9481673455, 1,21,15
87,1446972620.5928386,92506.92372980165, 1, 4,15,1016285.5056496044, 1,20,15
207,42297876.99624017,0.0, 1, 1,15,190188.4713327517,25, 7,15
543,1594279152.5875374,-1871597.5007169047,13,12,30,5990491.095378841,26, 4,60
687,248252895.18790356,0.0, 1, 1,15,1167938.486710276, 1,17,15
725,1101117423.4791623,0.0, 1, 1,15,5659516.568675145,26, 4,60
4,334,11
50,345056201.4068941,23003.746760459093, 1, 1,15,368059.9481673455, 1,21,15
87,1400296084.4446824,92506.92372980165, 1, 4,15,1016285.5056496044, 1,20,15
207,88461962.55376454,0.0, 1, 1,15,190188.4713327517,16, 7,15
543,4217021309.9073917,-1966282.2358678203, 1,13,15,8543850.119708408,26, 7,60
687,0.0,0.0, 1, 1,15,0.0, 1, 1,15
725,3863210626.17937,0.0, 1, 1,15,7752291.5238537839,26, 7,60
4,365,12
50,356558074.78712478,23003.746760459093, 1, 1,15,368059.9481673455, 1,21,15
87,1446972620.5928386,92506.92372980165, 1, 4,15,1016285.5056496044, 1,20,15
207,259811750.16824938,0.0, 1,15,45,190188.4713327517, 4, 7,15
543,9641949438.27569,-1772842.6404819682,31,13,45,10779894.809588729,14, 4,60
687,0.0,0.0, 1, 1,15,0.0, 1, 1,15
725,9097219087.504439,0.0, 1,15,45,10448920.282885032,14, 4,60
End of Data
 Number of Records Written=         120
