Program Version,EnergyPlus, Version 9.5.0-de239b2e5f, YMD=2022.12.21 15:51
1,5,Environment Title[],Latitude[deg],Longitude[deg],Time Zone[],Elevation[m]
2,8,Day of Simulation[],Month[],Day of Month[],DST Indicator[1=yes 0=no],Hour[],StartMinute[],EndMinute[],DayType
3,5,Cumulative Day of Simulation[],Month[],Day of Month[],DST Indicator[1=yes 0=no],DayType  ! When Daily Report Variables Requested
4,2,Cumulative Days of Simulation[],Month[]  ! When Monthly Report Variables Requested
5,1,Cumulative Days of Simulation[] ! When Run Period Report Variables Requested
6,1,Calendar Year of Simulation[] ! When Annual Report Variables Requested
7,1,Environment,Site Outdoor Air Drybulb Temperature [C] !Hourly
266,1,ZONE 1,Zone Air Temperature [C] !Hourly
267,1,ZONE 1,Zone Air Relative Humidity [%] !Hourly
268,1,ZONE 1,Zone Air CO2 Concentration [ppm] !Hourly
End of Data Dictionary
1,CHICAGO MIDWAY AP ANN HTG 99.6% CONDNS DB HVAC Sizing Pass 1,  41.78, -87.75,  -6.00, 186.00
2,1, 1,21, 0, 1, 0.00,60.00,WinterDesignDay
7,-18.7
266,19.33498021420435
267,6.735095603069585
268,588.834713473738
2,1, 1,21, 0, 2, 0.00,60.00,WinterDesignDay
7,-18.7
266,19.317160300219059
267,6.744895093819494
268,588.8150570472045
2,1, 1,21, 0, 3, 0.00,60.00,WinterDesignDay
7,-18.7
266,19.205505471882057
267,6.788269922856576
268,588.8557036886103
2,1, 1,21, 0, 4, 0.00,60.00,WinterDesignDay
7,-18.7
266,19.114536896301883
267,6.815696575473565
268,588.9599753613752
2,1, 1,21, 0, 5, 0.00,60.00,WinterDesignDay
7,-18.7
266,19.044498362399368
267,6.833075093364533
268,589.0714769517628
2,1, 1,21, 0, 6, 0.00,60.00,WinterDesignDay
7,-18.7
266,18.98903051162536
267,6.845360106050161
268,589.1712222805459
2,1, 1,21, 0, 7, 0.00,60.00,WinterDesignDay
7,-18.7
266,18.94343963092748
267,6.855065161158844
268,589.2558480742193
2,1, 1,21, 0, 8, 0.00,60.00,WinterDesignDay
7,-18.7
266,18.90406575164761
267,6.863620932688298
268,589.3272661633273
2,1, 1,21, 0, 9, 0.00,60.00,WinterDesignDay
7,-18.7
266,18.868920925776427
267,6.8715478183849829
268,589.3886953017052
2,1, 1,21, 0,10, 0.00,60.00,WinterDesignDay
7,-18.7
266,18.8369756494321
267,6.878988904359629
268,589.442802567274
2,1, 1,21, 0,11, 0.00,60.00,WinterDesignDay
7,-18.7
266,18.807495491924735
267,6.886043171368943
268,589.4914318146938
2,1, 1,21, 0,12, 0.00,60.00,WinterDesignDay
7,-18.7
266,18.779892683208649
267,6.892802543114002
268,589.5359209939363
2,1, 1,21, 0,13, 0.00,60.00,WinterDesignDay
7,-18.7
266,18.753729229680304
267,6.899334730888491
268,589.5772664452347
2,1, 1,21, 0,14, 0.00,60.00,WinterDesignDay
7,-18.7
266,18.72879611320132
267,6.905641594782391
268,589.6161733976971
2,1, 1,21, 0,15, 0.00,60.00,WinterDesignDay
7,-18.7
266,18.704842534363576
267,6.911770952167805
268,589.6531297512893
2,1, 1,21, 0,16, 0.00,60.00,WinterDesignDay
7,-18.7
266,18.681754845458316
267,6.91772624396563
268,589.6884955398218
2,1, 1,21, 0,17, 0.00,60.00,WinterDesignDay
7,-18.7
266,18.659441319557616
267,6.923516292094542
268,589.7225104437641
2,1, 1,21, 0,18, 0.00,60.00,WinterDesignDay
7,-18.7
266,18.63783301191188
267,6.9291492468548789
268,589.7553434691213
2,1, 1,21, 0,19, 0.00,60.00,WinterDesignDay
7,-18.7
266,18.61687749269469
267,6.934631781443465
268,589.7871169113741
2,1, 1,21, 0,20, 0.00,60.00,WinterDesignDay
7,-18.7
266,18.596534088728285
267,6.93996968409793
268,589.8179212470499
2,1, 1,21, 0,21, 0.00,60.00,WinterDesignDay
7,-18.7
266,18.57677043931419
267,6.945167742599845
268,589.8478249427566
2,1, 1,21, 0,22, 0.00,60.00,WinterDesignDay
7,-18.7
266,18.55756005295084
267,6.950230548008241
268,589.876881124814
2,1, 1,21, 0,23, 0.00,60.00,WinterDesignDay
7,-18.7
266,18.53888059605434
267,6.955162114626898
268,589.9051321784949
2,1, 1,21, 0,24, 0.00,60.00,WinterDesignDay
7,-18.7
266,18.520712703019485
267,6.959965886651508
268,589.9326129352623
1,CHICAGO MIDWAY AP ANN HTG 99% CONDNS DB HVAC Sizing Pass 1,  41.78, -87.75,  -6.00, 186.00
2,1, 1,21, 0, 1, 0.00,60.00,WinterDesignDay
7,-15.4
266,19.3807642443647
267,8.690118752367909
268,593.5505385698252
2,1, 1,21, 0, 2, 0.00,60.00,WinterDesignDay
7,-15.4
266,19.378307512679826
267,8.693825520171009
268,593.528163061281
2,1, 1,21, 0, 3, 0.00,60.00,WinterDesignDay
7,-15.4
266,19.372773675620519
267,8.69757512313992
268,593.5222003509733
2,1, 1,21, 0, 4, 0.00,60.00,WinterDesignDay
7,-15.4
266,19.366171038058267
267,8.700986724240332
268,593.5247806811831
2,1, 1,21, 0, 5, 0.00,60.00,WinterDesignDay
7,-15.4
266,19.35980714402492
267,8.703779556117166
268,593.5316326997906
2,1, 1,21, 0, 6, 0.00,60.00,WinterDesignDay
7,-15.4
266,19.355480910185013
267,8.705313710670863
268,593.5395198572371
2,1, 1,21, 0, 7, 0.00,60.00,WinterDesignDay
7,-15.4
266,19.358618184876926
267,8.703078608389884
268,593.5441458698456
2,1, 1,21, 0, 8, 0.00,60.00,WinterDesignDay
7,-15.4
266,19.360590633009019
267,8.702005017623753
268,593.5437681592816
2,1, 1,21, 0, 9, 0.00,60.00,WinterDesignDay
7,-15.4
266,19.361867803052978
267,8.701460031362967
268,593.5421556377044
2,1, 1,21, 0,10, 0.00,60.00,WinterDesignDay
7,-15.4
266,19.3628021490665
267,8.701124951431535
268,593.5404556931203
2,1, 1,21, 0,11, 0.00,60.00,WinterDesignDay
7,-15.4
266,19.363536133977968
267,8.700884385679484
268,593.5389596529271
2,1, 1,21, 0,12, 0.00,60.00,WinterDesignDay
7,-15.4
266,19.36414264352619
267,8.700691148422605
268,593.5377010257075
2,1, 1,21, 0,13, 0.00,60.00,WinterDesignDay
7,-15.4
266,19.364663315720724
267,8.700524199979224
268,593.536643435858
2,1, 1,21, 0,14, 0.00,60.00,WinterDesignDay
7,-15.4
266,19.36512337749107
267,8.700373703862958
268,593.5357407080285
2,1, 1,21, 0,15, 0.00,60.00,WinterDesignDay
7,-15.4
266,19.3655387025599
267,8.70023475122179
268,593.534953849475
2,1, 1,21, 0,16, 0.00,60.00,WinterDesignDay
7,-15.4
266,19.365919570263203
267,8.70010517225047
268,593.5342537707746
2,1, 1,21, 0,17, 0.00,60.00,WinterDesignDay
7,-15.4
266,19.3662728087925
267,8.699983053438605
268,593.5336198522882
2,1, 1,21, 0,18, 0.00,60.00,WinterDesignDay
7,-15.4
266,19.36660307163093
267,8.699867399232386
268,593.533037771838
2,1, 1,21, 0,19, 0.00,60.00,WinterDesignDay
7,-15.4
266,19.36691361979986
267,8.69975790958519
268,593.5324976132647
2,1, 1,21, 0,20, 0.00,60.00,WinterDesignDay
7,-15.4
266,19.367206810570857
267,8.69965382647181
268,593.5319924533719
2,1, 1,21, 0,21, 0.00,60.00,WinterDesignDay
7,-15.4
266,19.36748440692078
267,8.699554940423804
268,593.5315173741152
2,1, 1,21, 0,22, 0.00,60.00,WinterDesignDay
7,-15.4
266,19.367747775432947
267,8.699460759243218
268,593.531068794757
2,1, 1,21, 0,23, 0.00,60.00,WinterDesignDay
7,-15.4
266,19.367998013871565
267,8.699371074138327
268,593.5306440282252
2,1, 1,21, 0,24, 0.00,60.00,WinterDesignDay
7,-15.4
266,19.368236034015245
267,8.699285734929243
268,593.5302409890192
1,CHICAGO MIDWAY AP ANN CLG .4% CONDNS DB=>MWB HVAC Sizing Pass 1,  41.78, -87.75,  -6.00, 186.00
2,1, 7,21, 0, 1, 0.00,60.00,SummerDesignDay
7,25.854
266,25.036381927582754
267,63.10031233694413
268,695.6430094306436
2,1, 7,21, 0, 2, 0.00,60.00,SummerDesignDay
7,25.436
266,25.026480209961293
267,63.942157556588629
268,698.1248383541295
2,1, 7,21, 0, 3, 0.00,60.00,SummerDesignDay
7,25.138999999999997
266,25.018959674111586
267,64.75178992757154
268,699.944053375192
2,1, 7,21, 0, 4, 0.00,60.00,SummerDesignDay
7,24.874999999999998
266,25.01249973487075
267,65.56564963907164
268,701.0584223010759
2,1, 7,21, 0, 5, 0.00,60.00,SummerDesignDay
7,24.665999999999998
266,25.007412106949304
267,66.35191460203684
268,701.40165584175
2,1, 7,21, 0, 6, 0.00,60.00,SummerDesignDay
7,24.709999999999999
266,25.00733321854242
267,65.67609383647685
268,701.4492829546098
2,1, 7,21, 0, 7, 0.00,60.00,SummerDesignDay
7,25.160999999999999
266,25.015177053173944
267,62.40823635699453
268,701.7695819936355
2,1, 7,21, 0, 8, 0.00,60.00,SummerDesignDay
7,26.326999999999999
266,25.03771941766221
267,58.37194675017589
268,701.3188171843362
2,1, 7,21, 0, 9, 0.00,60.00,SummerDesignDay
7,27.933
266,25.069679358678415
267,55.36387839462499
268,698.5855731644091
2,1, 7,21, 0,10, 0.00,60.00,SummerDesignDay
7,29.494999999999999
266,25.10096571583939
267,53.75924303492569
268,693.8909008563294
2,1, 7,21, 0,11, 0.00,60.00,SummerDesignDay
7,30.881
266,25.12952441324829
267,53.25980866658788
268,688.2594990478942
2,1, 7,21, 0,12, 0.00,60.00,SummerDesignDay
7,31.926
266,25.151979706759059
267,53.35579210948378
268,682.6170292557036
2,1, 7,21, 0,13, 0.00,60.00,SummerDesignDay
7,32.696
266,25.167870381971534
267,53.453060707099897
268,677.7355977789973
2,1, 7,21, 0,14, 0.00,60.00,SummerDesignDay
7,33.235
266,25.17737064651947
267,53.22136983297668
268,673.8058380249863
2,1, 7,21, 0,15, 0.00,60.00,SummerDesignDay
7,33.4
266,25.178156283100596
267,52.6537715997149
268,670.9992893926497
2,1, 7,21, 0,16, 0.00,60.00,SummerDesignDay
7,33.06999999999999
266,25.17017463478759
267,52.09572856599277
268,669.5536932094342
2,1, 7,21, 0,17, 0.00,60.00,SummerDesignDay
7,32.432
266,25.15697072925836
267,51.770795728476887
268,669.5528149997261
2,1, 7,21, 0,18, 0.00,60.00,SummerDesignDay
7,31.618
266,25.143333668474776
267,51.96443260909838
268,670.7770781019223
2,1, 7,21, 0,19, 0.00,60.00,SummerDesignDay
7,30.463
266,25.124729099659036
267,53.035422141074018
268,673.2882926339842
2,1, 7,21, 0,20, 0.00,60.00,SummerDesignDay
7,29.363
266,25.108656369690406
267,55.085407569907129
268,677.1086203170202
2,1, 7,21, 0,21, 0.00,60.00,SummerDesignDay
7,28.505
266,25.094945544894715
267,57.03424193278911
268,681.269936581339
2,1, 7,21, 0,22, 0.00,60.00,SummerDesignDay
7,27.712999999999999
266,25.077521161245138
267,58.47463847326879
268,685.3129826759481
2,1, 7,21, 0,23, 0.00,60.00,SummerDesignDay
7,27.030999999999997
266,25.062395331844827
267,59.627948105178898
268,689.1399293105482
2,1, 7,21, 0,24, 0.00,60.00,SummerDesignDay
7,26.414999999999997
266,25.048579455164928
267,60.62816109317002
268,692.5653881133935
1,CHICAGO MIDWAY AP ANN CLG 1% CONDNS DB=>MWB HVAC Sizing Pass 1,  41.78, -87.75,  -6.00, 186.00
2,1, 7,21, 0, 1, 0.00,60.00,SummerDesignDay
7,24.454
266,25.002482919619778
267,63.41760245587243
268,699.9338757848473
2,1, 7,21, 0, 2, 0.00,60.00,SummerDesignDay
7,24.035999999999999
266,24.99249046208755
267,64.57364089627004
268,699.8090072955946
2,1, 7,21, 0, 3, 0.00,60.00,SummerDesignDay
7,23.739
266,24.985483991922754
267,65.70889692077546
268,698.9622746262722
2,1, 7,21, 0, 4, 0.00,60.00,SummerDesignDay
7,23.475
266,24.979269308841159
267,66.81812106069998
268,697.8372072451307
2,1, 7,21, 0, 5, 0.00,60.00,SummerDesignDay
7,23.266000000000003
266,24.974178243219716
267,67.8522038832248
268,696.6184388810569
2,1, 7,21, 0, 6, 0.00,60.00,SummerDesignDay
7,23.310000000000004
266,24.973706463303026
267,67.17507541167302
268,695.7712856509991
2,1, 7,21, 0, 7, 0.00,60.00,SummerDesignDay
7,23.760999999999997
266,24.98381963055991
267,63.55243702472977
268,696.0338601273195
2,1, 7,21, 0, 8, 0.00,60.00,SummerDesignDay
7,24.927
266,25.008447470932187
267,58.942493906942207
268,697.7525479809845
2,1, 7,21, 0, 9, 0.00,60.00,SummerDesignDay
7,26.532999999999999
266,25.04159555023091
267,55.33031091894411
268,698.7444348331756
2,1, 7,21, 0,10, 0.00,60.00,SummerDesignDay
7,28.095
266,25.073622023439677
267,53.353665706586379
268,696.6477562895896
2,1, 7,21, 0,11, 0.00,60.00,SummerDesignDay
7,29.481
266,25.102546677313076
267,52.672144210625948
268,692.5333006799253
2,1, 7,21, 0,12, 0.00,60.00,SummerDesignDay
7,30.525999999999998
266,25.125121602288176
267,52.6985292725213
268,687.6735590763116
2,1, 7,21, 0,13, 0.00,60.00,SummerDesignDay
7,31.296
266,25.141154625916447
267,52.77671734046518
268,683.1435898785597
2,1, 7,21, 0,14, 0.00,60.00,SummerDesignDay
7,31.835
266,25.150944763131265
267,52.53163589250834
268,679.3351874540377
2,1, 7,21, 0,15, 0.00,60.00,SummerDesignDay
7,32.0
266,25.151996113989339
267,51.93765053992137
268,676.5611475530234
2,1, 7,21, 0,16, 0.00,60.00,SummerDesignDay
7,31.67
266,25.144110075234705
267,51.3471902916185
268,675.1599332442668
2,1, 7,21, 0,17, 0.00,60.00,SummerDesignDay
7,31.032
266,25.130860437046079
267,51.00023438327118
268,675.2651785160754
2,1, 7,21, 0,18, 0.00,60.00,SummerDesignDay
7,30.217999999999998
266,25.116720412981097
267,51.190668818952357
268,676.6551895903242
2,1, 7,21, 0,19, 0.00,60.00,SummerDesignDay
7,29.063
266,25.097166660767117
267,52.29595488015194
268,679.3916729173939
2,1, 7,21, 0,20, 0.00,60.00,SummerDesignDay
7,27.963
266,25.079455451027049
267,54.43737505933991
268,683.4686376881394
2,1, 7,21, 0,21, 0.00,60.00,SummerDesignDay
7,27.104999999999998
266,25.06413541503998
267,56.53748611638129
268,687.8143879565585
2,1, 7,21, 0,22, 0.00,60.00,SummerDesignDay
7,26.312999999999997
266,25.04624457719828
267,58.13193073962194
268,691.9004005952786
2,1, 7,21, 0,23, 0.00,60.00,SummerDesignDay
7,25.631
266,25.03017981474281
267,59.42823711997961
268,695.5649399768217
2,1, 7,21, 0,24, 0.00,60.00,SummerDesignDay
7,25.015
266,25.015602310402316
267,60.59231801590785
268,698.480136180852
1,ANNUAL,  41.78, -87.75,  -6.00, 186.00
2,1, 1, 1, 0, 1, 0.00,60.00,Sunday
7,2.75
266,19.644737050479294
267,41.43547564695762
268,655.8906993720943
2,1, 1, 1, 0, 2, 0.00,60.00,Sunday
7,-1.0
266,19.561696043370185
267,31.439684974054456
268,644.1154622874734
2,1, 1, 1, 0, 3, 0.00,60.00,Sunday
7,-1.0
266,19.5674383766256
267,25.060413679912064
268,637.398651515709
2,1, 1, 1, 0, 4, 0.00,60.00,Sunday
7,-1.0
266,19.56930257076476
267,21.86021572826269
268,633.5996759557788
2,1, 1, 1, 0, 5, 0.00,60.00,Sunday
7,-1.0
266,19.56915204700697
267,20.58972451654568
268,631.5691523562263
2,1, 1, 1, 0, 6, 0.00,60.00,Sunday
7,-1.0
266,19.569033063969319
267,20.20530409453334
268,629.9842597935641
2,1, 1, 1, 0, 7, 0.00,60.00,Sunday
7,-0.375
266,19.580592654537854
267,20.027922217701368
268,628.897896205602
2,1, 1, 1, 0, 8, 0.00,60.00,Sunday
7,0.0
266,19.58929961543548
267,19.781360950134539
268,629.1510139070419
2,1, 1, 1, 0, 9, 0.00,60.00,Sunday
7,0.625
266,19.60487607580274
267,19.18446301884559
268,628.4241514448147
2,1, 1, 1, 0,10, 0.00,60.00,Sunday
7,2.25
266,19.63772384909765
267,19.218568150451984
268,630.6905875416568
2,1, 1, 1, 0,11, 0.00,60.00,Sunday
7,3.0
266,19.654003519720946
267,20.372620358556135
268,633.8760663622595
2,1, 1, 1, 0,12, 0.00,60.00,Sunday
7,3.625
266,19.663847660942659
267,22.0442208604557
268,635.3913763299739
2,1, 1, 1, 0,13, 0.00,60.00,Sunday
7,5.25
266,19.69537345937911
267,24.342078404739213
268,639.7820160381051
2,1, 1, 1, 0,14, 0.00,60.00,Sunday
7,6.0
266,19.711291688634018
267,26.709672892924105
268,644.0500871923231
2,1, 1, 1, 0,15, 0.00,60.00,Sunday
7,6.0
266,19.71015414180704
267,28.680007567064494
268,644.914839389767
2,1, 1, 1, 0,16, 0.00,60.00,Sunday
7,6.625
266,19.722278741923028
267,29.836948610639128
268,646.8178546701397
2,1, 1, 1, 0,17, 0.00,60.00,Sunday
7,7.0
266,19.729929434135774
267,30.76840311484582
268,648.4544617259464
2,1, 1, 1, 0,18, 0.00,60.00,Sunday
7,7.0
266,19.729613545922797
267,31.780645240025075
268,647.9090931841635
2,1, 1, 1, 0,19, 0.00,60.00,Sunday
7,7.625
266,19.742567707759528
267,32.99945458760315
268,645.9065729156912
2,1, 1, 1, 0,20, 0.00,60.00,Sunday
7,8.625
266,19.763510271274439
267,35.775621903927788
268,648.1325562802608
2,1, 1, 1, 0,21, 0.00,60.00,Sunday
7,9.0
266,19.771565369745717
267,38.96783372964414
268,651.5718111905172
2,1, 1, 1, 0,22, 0.00,60.00,Sunday
7,9.0
266,19.771006861394264
267,41.255503220196107
268,657.3611302383462
2,1, 1, 1, 0,23, 0.00,60.00,Sunday
7,9.0
266,19.771055179579994
267,43.37322385894994
268,660.7590777431341
2,1, 1, 1, 0,24, 0.00,60.00,Sunday
7,9.0
266,19.77155924497246
267,44.65239483071692
268,661.7367653965705
2,2, 1, 2, 0, 1, 0.00,60.00,Monday
7,9.0
266,19.77199382413872
267,45.344001369804349
268,660.8289025453271
2,2, 1, 2, 0, 2, 0.00,60.00,Monday
7,9.0
266,19.77247561193652
267,45.75157135328548
268,660.6766140657639
2,2, 1, 2, 0, 3, 0.00,60.00,Monday
7,8.375
266,19.759184989468137
267,45.99103934666104
268,659.9119531466427
2,2, 1, 2, 0, 4, 0.00,60.00,Monday
7,7.250000000000001
266,19.734070125400295
267,45.92565090754286
268,659.1553075190169
2,2, 1, 2, 0, 5, 0.00,60.00,Monday
7,6.3
266,19.71271705672745
267,45.2432624108106
268,657.4960447158803
2,2, 1, 2, 0, 6, 0.00,60.00,Monday
7,5.6875
266,19.699701721970617
267,44.204914884563489
268,655.5670135526215
2,2, 1, 2, 0, 7, 0.00,60.00,Monday
7,5.1875
266,19.690616592152908
267,42.467620159543937
268,652.6705440655876
2,2, 1, 2, 0, 8, 0.00,60.00,Monday
7,5.25
266,19.692699358476774
267,40.85490497049573
268,648.2305021111663
2,2, 1, 2, 0, 9, 0.00,60.00,Monday
7,5.775
266,19.70321098698191
267,40.94566205213305
268,647.3794256744127
2,2, 1, 2, 0,10, 0.00,60.00,Monday
7,7.25
266,19.736708628816449
267,42.240642571979979
268,651.0711871749584
2,2, 1, 2, 0,11, 0.00,60.00,Monday
7,9.875
266,19.791657616482174
267,44.28529535475955
268,656.0822007963079
2,2, 1, 2, 0,12, 0.00,60.00,Monday
7,11.0
266,19.81447663721263
267,46.904311236078367
268,659.7960922175951
2,2, 1, 2, 0,13, 0.00,60.00,Monday
7,11.625
266,19.827397579815974
267,50.161252846015148
268,665.0822838588802
2,2, 1, 2, 0,14, 0.00,60.00,Monday
7,12.0
266,19.83566473715038
267,54.33751440305612
268,666.3301650912968
2,2, 1, 2, 0,15, 0.00,60.00,Monday
7,12.625
266,19.849091440508464
267,57.3791573053183
268,663.7911858651335
2,2, 1, 2, 0,16, 0.00,60.00,Monday
7,13.625
266,19.870897020303695
267,60.67483754817541
268,660.4966178512793
2,2, 1, 2, 0,17, 0.00,60.00,Monday
7,14.625
266,19.893273632898067
267,63.81435753065493
268,657.557485529114
2,2, 1, 2, 0,18, 0.00,60.00,Monday
7,15.625
266,19.91627318739737
267,65.4039668788814
268,648.9735625488975
2,2, 1, 2, 0,19, 0.00,60.00,Monday
7,16.0
266,19.925266544964715
267,65.97425315631537
268,640.4203826026329
2,2, 1, 2, 0,20, 0.00,60.00,Monday
7,16.0
266,19.925066010007556
267,66.28129063968246
268,637.6569889060888
2,2, 1, 2, 0,21, 0.00,60.00,Monday
7,16.0
266,19.92417920285627
267,66.548155766942
268,644.887664975488
2,2, 1, 2, 0,22, 0.00,60.00,Monday
7,15.375
266,19.90943565831079
267,66.52558430295312
268,662.105250465301
2,2, 1, 2, 0,23, 0.00,60.00,Monday
7,14.375
266,19.887449128507379
267,64.33658366925708
268,667.8155012733174
2,2, 1, 2, 0,24, 0.00,60.00,Monday
7,12.75
266,19.850926505300995
267,59.62323941898311
268,661.6239462395772
2,3, 1, 3, 0, 1, 0.00,60.00,Tuesday
7,11.375
266,19.819894115416923
267,55.04517754392736
268,661.3858137089812
2,3, 1, 3, 0, 2, 0.00,60.00,Tuesday
7,10.375
266,19.79791693750154
267,51.95707911411969
268,657.1284193382713
2,3, 1, 3, 0, 3, 0.00,60.00,Tuesday
7,9.375
266,19.776001137225287
267,49.15604227254899
268,657.0677248412665
2,3, 1, 3, 0, 4, 0.00,60.00,Tuesday
7,8.375
266,19.75419526162295
267,46.20889971062405
268,656.3438494450695
2,3, 1, 3, 0, 5, 0.00,60.00,Tuesday
7,6.75
266,19.71917447539004
267,43.516731238032729
268,655.6989579990395
2,3, 1, 3, 0, 6, 0.00,60.00,Tuesday
7,6.0
266,19.702462252598268
267,40.89024692842775
268,653.097583248802
2,3, 1, 3, 0, 7, 0.00,60.00,Tuesday
7,6.0
266,19.704221393861375
267,38.27784732886204
268,650.6063295242666
2,3, 1, 3, 0, 8, 0.00,60.00,Tuesday
7,6.0
266,19.705301892716606
267,36.105747450204159
268,650.5149399172731
2,3, 1, 3, 0, 9, 0.00,60.00,Tuesday
7,6.0
266,19.70743259119757
267,34.54345058021415
268,650.086506957856
2,3, 1, 3, 0,10, 0.00,60.00,Tuesday
7,6.0
266,19.71028620281992
267,32.51862872828214
268,649.7850344408321
2,3, 1, 3, 0,11, 0.00,60.00,Tuesday
7,6.0
266,19.70900762671274
267,29.779606761662035
268,647.6467755727697
2,3, 1, 3, 0,12, 0.00,60.00,Tuesday
7,6.0
266,19.709824052291205
267,27.368432859151257
268,647.1542716857606
2,3, 1, 3, 0,13, 0.00,60.00,Tuesday
7,6.0
266,19.70988326364771
267,25.246816938995797
268,644.9435196583861
2,3, 1, 3, 0,14, 0.00,60.00,Tuesday
7,6.0
266,19.70907101648508
267,23.408354435104916
268,644.1695821863631
2,3, 1, 3, 0,15, 0.00,60.00,Tuesday
7,4.75
266,19.684414840397694
267,21.97364111025576
268,644.2294039301937
2,3, 1, 3, 0,16, 0.00,60.00,Tuesday
7,4.0
266,19.66753680008612
267,21.234452365796277
268,640.2127986083308
2,3, 1, 3, 0,17, 0.00,60.00,Tuesday
7,2.75
266,19.642122625873765
267,21.607592429531004
268,639.8295942333161
2,3, 1, 3, 0,18, 0.00,60.00,Tuesday
7,1.375
266,19.61314928849327
267,22.48504202663582
268,636.6213545074621
2,3, 1, 3, 0,19, 0.00,60.00,Tuesday
7,0.375
266,19.593317433137455
267,23.536075822350804
268,633.5473711287856
2,3, 1, 3, 0,20, 0.00,60.00,Tuesday
7,0.625
266,19.596958976731807
267,24.182329582450295
268,633.0032039941218
2,3, 1, 3, 0,21, 0.00,60.00,Tuesday
7,1.0
266,19.606875683816648
267,24.30510025763667
268,633.2467826977058
2,3, 1, 3, 0,22, 0.00,60.00,Tuesday
7,1.0
266,19.60983102251422
267,23.635950272775316
268,631.797181849241
2,3, 1, 3, 0,23, 0.00,60.00,Tuesday
7,0.375
266,19.600846063234454
267,22.320473807834845
268,627.7390357319716
2,3, 1, 3, 0,24, 0.00,60.00,Tuesday
7,0.0
266,19.593664724915425
267,20.592325831234846
268,624.1456940166333
2,4, 1, 4, 0, 1, 0.00,60.00,Wednesday
7,0.625
266,19.606803736121145
267,19.68490860275858
268,621.8349823959618
2,4, 1, 4, 0, 2, 0.00,60.00,Wednesday
7,0.375
266,19.604445368396655
267,19.86632788589334
268,621.2619060992222
2,4, 1, 4, 0, 3, 0.00,60.00,Wednesday
7,0.0
266,19.598757189909337
267,20.475180558839658
268,618.786644789239
2,4, 1, 4, 0, 4, 0.00,60.00,Wednesday
7,0.0
266,19.599266313495258
267,21.029629104308549
268,614.5149121323004
2,4, 1, 4, 0, 5, 0.00,60.00,Wednesday
7,0.625
266,19.60995305755783
267,21.619255841954226
268,615.9498448923342
2,4, 1, 4, 0, 6, 0.00,60.00,Wednesday
7,1.0
266,19.61926182218746
267,21.71651908439641
268,617.0400649429522
2,4, 1, 4, 0, 7, 0.00,60.00,Wednesday
7,1.0
266,19.62032428365323
267,21.93361309000324
268,616.8239174874133
2,4, 1, 4, 0, 8, 0.00,60.00,Wednesday
7,1.0
266,19.62305154392943
267,21.83168752612862
268,613.6718409869063
2,4, 1, 4, 0, 9, 0.00,60.00,Wednesday
7,1.0
266,19.62162992278102
267,21.946863447184567
268,610.3729302834646
2,4, 1, 4, 0,10, 0.00,60.00,Wednesday
7,1.125
266,19.624213580352817
267,21.444993366257266
268,610.9654645370965
2,4, 1, 4, 0,11, 0.00,60.00,Wednesday
7,1.6374999999999998
266,19.63504541785983
267,20.680506942292966
268,611.8225972163516
2,4, 1, 4, 0,12, 0.00,60.00,Wednesday
7,2.0875
266,19.642428001270657
267,20.43076568001251
268,615.561188934269
2,4, 1, 4, 0,13, 0.00,60.00,Wednesday
7,2.3249999999999999
266,19.64889422876379
267,20.506210629232734
268,618.4776390663941
2,4, 1, 4, 0,14, 0.00,60.00,Wednesday
7,2.8375
266,19.65879897147531
267,20.37031319519601
268,617.5624795435807
2,4, 1, 4, 0,15, 0.00,60.00,Wednesday
7,1.975
266,19.64506446617196
267,20.435194269824735
268,616.5749105563532
2,4, 1, 4, 0,16, 0.00,60.00,Wednesday
7,0.8625
266,19.622534835563589
267,20.520646996422724
268,610.7238623409149
2,4, 1, 4, 0,17, 0.00,60.00,Wednesday
7,-0.21249999999999998
266,19.598546298852275
267,20.749643628820978
268,610.1858878214482
2,4, 1, 4, 0,18, 0.00,60.00,Wednesday
7,-0.8875
266,19.585802618342787
267,21.335243272206446
268,610.5766089705655
2,4, 1, 4, 0,19, 0.00,60.00,Wednesday
7,-1.0
266,19.58526818223914
267,22.25958636705537
268,609.0351140951375
2,4, 1, 4, 0,20, 0.00,60.00,Wednesday
7,-1.0
266,19.587049864669099
267,23.031384796369747
268,605.4788379897987
2,4, 1, 4, 0,21, 0.00,60.00,Wednesday
7,-1.0
266,19.5875260913877
267,22.949375508363177
268,603.5500507673021
2,4, 1, 4, 0,22, 0.00,60.00,Wednesday
7,-1.0
266,19.58694253373669
267,22.925328228504648
268,606.3030825206594
2,4, 1, 4, 0,23, 0.00,60.00,Wednesday
7,-1.0
266,19.585225892624359
267,22.930975879394244
268,609.1184213142284
2,4, 1, 4, 0,24, 0.00,60.00,Wednesday
7,-1.0
266,19.584902057724344
267,22.94180317879818
268,611.3282773215301
2,5, 1, 5, 0, 1, 0.00,60.00,Thursday
7,-1.0
266,19.584476766965357
267,22.97178561311549
268,613.1649281334904
2,5, 1, 5, 0, 2, 0.00,60.00,Thursday
7,-1.0
266,19.583124999026525
267,23.036329393663018
268,616.4345013828245
2,5, 1, 5, 0, 3, 0.00,60.00,Thursday
7,-1.0
266,19.583094344286626
267,23.090399305915278
268,619.8785071227794
2,5, 1, 5, 0, 4, 0.00,60.00,Thursday
7,-1.625
266,19.573397850978674
267,22.888378343755286
268,620.188866481129
2,5, 1, 5, 0, 5, 0.00,60.00,Thursday
7,-2.625
266,19.55578598466625
267,21.784717904690369
268,617.408280711009
2,5, 1, 5, 0, 6, 0.00,60.00,Thursday
7,-3.0
266,19.547781129821247
267,20.154723409045283
268,614.7183832265678
2,5, 1, 5, 0, 7, 0.00,60.00,Thursday
7,-3.625
266,19.536545655676833
267,19.066536388499406
268,614.8719349350968
2,5, 1, 5, 0, 8, 0.00,60.00,Thursday
7,-4.0
266,19.530344727734467
267,18.06971655113489
268,614.0159649974363
2,5, 1, 5, 0, 9, 0.00,60.00,Thursday
7,-4.625
266,19.522808245329025
267,17.44271912950315
268,611.5455429997794
2,5, 1, 5, 0,10, 0.00,60.00,Thursday
7,-5.0
266,19.5203712134834
267,16.954479412032666
268,610.3203664018887
2,5, 1, 5, 0,11, 0.00,60.00,Thursday
7,-4.375
266,19.53644772870954
267,16.3238740609441
268,610.041718158079
2,5, 1, 5, 0,12, 0.00,60.00,Thursday
7,-4.0
266,19.5531796397616
267,16.132604490084977
268,611.3020614881141
2,5, 1, 5, 0,13, 0.00,60.00,Thursday
7,-4.0
266,19.561141072621209
267,16.22061645389881
268,612.0971033320126
2,5, 1, 5, 0,14, 0.00,60.00,Thursday
7,-3.375
266,19.553528301236434
267,15.991430679805957
268,613.32082753701
2,5, 1, 5, 0,15, 0.00,60.00,Thursday
7,-4.25
266,19.538407360496085
267,15.666285337777769
268,613.0314822740165
2,5, 1, 5, 0,16, 0.00,60.00,Thursday
7,-6.25
266,19.50273437576663
267,14.839905441417998
268,610.6503367728111
2,5, 1, 5, 0,17, 0.00,60.00,Thursday
7,-7.625
266,19.46873600807397
267,13.545554358404324
268,607.2953209700613
2,5, 1, 5, 0,18, 0.00,60.00,Thursday
7,-8.0
266,19.467157697511668
267,12.373181888708619
268,604.6745594225395
2,5, 1, 5, 0,19, 0.00,60.00,Thursday
7,-8.625
266,19.456742818696886
267,11.375462387931897
268,602.8296044641425
2,5, 1, 5, 0,20, 0.00,60.00,Thursday
7,-10.25
266,19.42742639751993
267,10.39575047720386
268,601.5319917439772
2,5, 1, 5, 0,21, 0.00,60.00,Thursday
7,-11.625
266,19.402719290453637
267,9.321202505234553
268,599.7602854854425
2,5, 1, 5, 0,22, 0.00,60.00,Thursday
7,-12.625
266,19.386187033689809
267,8.44961183812989
268,597.8520261030402
2,5, 1, 5, 0,23, 0.00,60.00,Thursday
7,-13.625
266,19.368377767429274
267,7.763524298964963
268,596.8704951214378
2,5, 1, 5, 0,24, 0.00,60.00,Thursday
7,-14.625
266,19.35512042409509
267,7.081774492714269
268,595.252724993201
2,6, 1, 6, 0, 1, 0.00,60.00,Friday
7,-15.625
266,19.340169762645219
267,6.313174872908698
268,591.9452506357966
2,6, 1, 6, 0, 2, 0.00,60.00,Friday
7,-16.625
266,19.32322689087625
267,5.796720884408488
268,590.7807607683827
2,6, 1, 6, 0, 3, 0.00,60.00,Friday
7,-17.0
266,19.318661830644083
267,5.487952388999446
268,590.0462796615302
2,6, 1, 6, 0, 4, 0.00,60.00,Friday
7,-17.625
266,19.311865667139938
267,5.171033333202568
268,589.7900916195946
2,6, 1, 6, 0, 5, 0.00,60.00,Friday
7,-18.0
266,19.30731674561167
267,4.894437627061956
268,589.0611777831482
2,6, 1, 6, 0, 6, 0.00,60.00,Friday
7,-18.0
266,19.309946690049839
267,4.805613021583307
268,588.368567779212
2,6, 1, 6, 0, 7, 0.00,60.00,Friday
7,-18.625
266,19.300743755751456
267,4.887556667736085
268,588.298672591214
2,6, 1, 6, 0, 8, 0.00,60.00,Friday
7,-19.0
266,19.293193391676163
267,4.935529447887365
268,588.4127863344229
2,6, 1, 6, 0, 9, 0.00,60.00,Friday
7,-18.375
266,19.31852207790998
267,4.938140948101702
268,587.6144115141175
2,6, 1, 6, 0,10, 0.00,60.00,Friday
7,-17.375
266,19.340522442983333
267,4.984204123309031
268,586.5818068252025
2,6, 1, 6, 0,11, 0.00,60.00,Friday
7,-16.375
266,19.3564831024022
267,5.127719208204141
268,586.7534164062789
2,6, 1, 6, 0,12, 0.00,60.00,Friday
7,-15.375
266,19.39036861612618
267,5.265287918909613
268,587.4222122320022
2,6, 1, 6, 0,13, 0.00,60.00,Friday
7,-14.375
266,19.41164095469196
267,5.525466804326452
268,586.4180431950015
2,6, 1, 6, 0,14, 0.00,60.00,Friday
7,-13.375
266,19.428554288592595
267,5.811928485180543
268,587.053090874609
2,6, 1, 6, 0,15, 0.00,60.00,Friday
7,-12.375
266,19.439119767113899
267,6.049860433767756
268,588.946546145473
2,6, 1, 6, 0,16, 0.00,60.00,Friday
7,-12.0
266,19.427302407853945
267,6.3065219378867589
268,589.2191695306132
2,6, 1, 6, 0,17, 0.00,60.00,Friday
7,-12.0
266,19.421096391101764
267,6.425174437942623
268,588.328721993748
2,6, 1, 6, 0,18, 0.00,60.00,Friday
7,-12.0
266,19.42218963006932
267,6.4936517837282559
268,589.0546707188059
2,6, 1, 6, 0,19, 0.00,60.00,Friday
7,-12.0
266,19.419328736286539
267,6.554327855909056
268,590.9089258797451
2,6, 1, 6, 0,20, 0.00,60.00,Friday
7,-12.0
266,19.415971312606005
267,6.669912909772594
268,592.3583451557591
2,6, 1, 6, 0,21, 0.00,60.00,Friday
7,-12.0
266,19.412949975917586
267,6.8918248968607689
268,593.514582465921
2,6, 1, 6, 0,22, 0.00,60.00,Friday
7,-12.0
266,19.41173371787247
267,7.021268393806422
268,594.7298222939531
2,6, 1, 6, 0,23, 0.00,60.00,Friday
7,-12.0
266,19.409226930954
267,7.09382806496262
268,595.7491615038713
2,6, 1, 6, 0,24, 0.00,60.00,Friday
7,-12.0
266,19.407949560216193
267,7.150329721855478
268,597.3793432894445
2,7, 1, 7, 0, 1, 0.00,60.00,Saturday
7,-12.625
266,19.3991821758843
267,7.179463808918392
268,597.4181077712544
2,7, 1, 7, 0, 2, 0.00,60.00,Saturday
7,-13.0
266,19.393046259352127
267,7.202372916328221
268,596.992726411804
2,7, 1, 7, 0, 3, 0.00,60.00,Saturday
7,-13.0
266,19.394348594364354
267,7.209023765082766
268,596.597633899038
2,7, 1, 7, 0, 4, 0.00,60.00,Saturday
7,-13.0
266,19.395968689241536
267,7.211354284983136
268,596.3838473786207
2,7, 1, 7, 0, 5, 0.00,60.00,Saturday
7,-13.0
266,19.39626598573692
267,7.2101952104569639
268,596.1408218078572
2,7, 1, 7, 0, 6, 0.00,60.00,Saturday
7,-13.625
266,19.38563764297143
267,7.2332438940753
268,597.0259198778613
2,7, 1, 7, 0, 7, 0.00,60.00,Saturday
7,-14.0
266,19.3796624311777
267,7.164725442300709
268,597.0748949368917
2,7, 1, 7, 0, 8, 0.00,60.00,Saturday
7,-13.375
266,19.38890011170742
267,6.958143000972276
268,596.9424722615779
2,7, 1, 7, 0, 9, 0.00,60.00,Saturday
7,-13.0
266,19.40484519311915
267,6.9242723035298969
268,598.0680518299226
2,7, 1, 7, 0,10, 0.00,60.00,Saturday
7,-12.375
266,19.415995823107417