Program Version,EnergyPlus, Version 9.5.0-de239b2e5f, YMD=2022.11.04 21:31
1,5,Environment Title[],Latitude[deg],Longitude[deg],Time Zone[],Elevation[m]
2,8,Day of Simulation[],Month[],Day of Month[],DST Indicator[1=yes 0=no],Hour[],StartMinute[],EndMinute[],DayType
3,5,Cumulative Day of Simulation[],Month[],Day of Month[],DST Indicator[1=yes 0=no],DayType  ! When Daily Report Variables Requested
4,2,Cumulative Days of Simulation[],Month[]  ! When Monthly Report Variables Requested
5,1,Cumulative Days of Simulation[] ! When Run Period Report Variables Requested
6,1,Calendar Year of Simulation[] ! When Annual Report Variables Requested
7,1,Environment,Site Outdoor Air Drybulb Temperature [C] !Hourly
266,1,ZONE 1,Zone Air Temperature [C] !Hourly
267,1,ZONE 1,Zone Air Relative Humidity [%] !Hourly
268,1,ZONE 1,Zone Air CO2 Concentration [ppm] !Hourly
End of Data Dictionary
1,CHICAGO MIDWAY AP ANN HTG 99.6% CONDNS DB HVAC Sizing Pass 1,  41.78, -87.75,  -6.00, 186.00
2,1, 1,21, 0, 1, 0.00,60.00,WinterDesignDay
7,-18.7
266,19.21557757794104
267,13.267100547659874
268,857.602059537614
2,1, 1,21, 0, 2, 0.00,60.00,WinterDesignDay
7,-18.7
266,19.22237045750583
267,13.273383010446418
268,857.572961172578
2,1, 1,21, 0, 3, 0.00,60.00,WinterDesignDay
7,-18.7
266,19.226332733660806
267,13.280850512514068
268,857.549457552144
2,1, 1,21, 0, 4, 0.00,60.00,WinterDesignDay
7,-18.7
266,19.18185206059347
267,13.325403459229746
268,857.5382859522749
2,1, 1,21, 0, 5, 0.00,60.00,WinterDesignDay
7,-18.7
266,19.067185814860595
267,13.414204503079145
268,857.569026049707
2,1, 1,21, 0, 6, 0.00,60.00,WinterDesignDay
7,-18.7
266,18.94551681474849
267,13.488443587054942
268,857.6483837989555
2,1, 1,21, 0, 7, 0.00,60.00,WinterDesignDay
7,-18.7
266,18.82108386841623
267,13.547653499755344
268,857.7649662142145
2,1, 1,21, 0, 8, 0.00,60.00,WinterDesignDay
7,-18.7
266,18.695934437595967
267,13.593088021862464
268,857.9096486366658
2,1, 1,21, 0, 9, 0.00,60.00,WinterDesignDay
7,-18.7
266,18.57111087712246
267,13.626556213060923
268,858.075070931749
2,1, 1,21, 0,10, 0.00,60.00,WinterDesignDay
7,-18.7
266,18.447244319460326
267,13.649856541293579
268,858.2554662694529
2,1, 1,21, 0,11, 0.00,60.00,WinterDesignDay
7,-18.7
266,18.324693924742669
267,13.66466804925067
268,858.4463806945612
2,1, 1,21, 0,12, 0.00,60.00,WinterDesignDay
7,-18.7
266,18.20397024681348
267,13.672223336860349
268,858.644372406244
2,1, 1,21, 0,13, 0.00,60.00,WinterDesignDay
7,-18.7
266,18.0850640240538
267,13.673959647118285
268,858.8467528402621
2,1, 1,21, 0,14, 0.00,60.00,WinterDesignDay
7,-18.7
266,17.9680507059935
267,13.670961996809984
268,859.0515601994268
2,1, 1,21, 0,15, 0.00,60.00,WinterDesignDay
7,-18.7
266,17.853102901134798
267,13.664035491762445
268,859.2572813132924
2,1, 1,21, 0,16, 0.00,60.00,WinterDesignDay
7,-18.7
266,17.74011521745443
267,13.654052389989989
268,859.462800987319
2,1, 1,21, 0,17, 0.00,60.00,WinterDesignDay
7,-18.7
266,17.62920630958806
267,13.641542473129999
268,859.6672735143069
2,1, 1,21, 0,18, 0.00,60.00,WinterDesignDay
7,-18.7
266,17.52036323208125
267,13.62704164807312
268,859.8700554679984
2,1, 1,21, 0,19, 0.00,60.00,WinterDesignDay
7,-18.7
266,17.413519235093419
267,13.611024955087187
268,860.070689552314
2,1, 1,21, 0,20, 0.00,60.00,WinterDesignDay
7,-18.7
266,17.30872027098225
267,13.593789530386428
268,860.2688318790956
2,1, 1,21, 0,21, 0.00,60.00,WinterDesignDay
7,-18.7
266,17.205955481727594
267,13.575621387303384
268,860.4642202797869
2,1, 1,21, 0,22, 0.00,60.00,WinterDesignDay
7,-18.7
266,17.105207798419614
267,13.556757424935329
268,860.656664141631
2,1, 1,21, 0,23, 0.00,60.00,WinterDesignDay
7,-18.7
266,17.00645543286188
267,13.537393730391575
268,860.8460284077575
2,1, 1,21, 0,24, 0.00,60.00,WinterDesignDay
7,-18.7
266,16.909672999534338
267,13.5176922953735
268,861.0322211897178
1,CHICAGO MIDWAY AP ANN HTG 99% CONDNS DB HVAC Sizing Pass 1,  41.78, -87.75,  -6.00, 186.00
2,1, 1,21, 0, 1, 0.00,60.00,WinterDesignDay
7,-15.4
266,19.270793661912174
267,15.085425098042057
268,859.3561702065043
2,1, 1,21, 0, 2, 0.00,60.00,WinterDesignDay
7,-15.4
266,19.27818639606287
267,15.089873428963358
268,859.3280106205659
2,1, 1,21, 0, 3, 0.00,60.00,WinterDesignDay
7,-15.4
266,19.28249986877196
267,15.096223675521607
268,859.3049125018903
2,1, 1,21, 0, 4, 0.00,60.00,WinterDesignDay
7,-15.4
266,19.285427013402975
267,15.102496886677124
268,859.2862609333104
2,1, 1,21, 0, 5, 0.00,60.00,WinterDesignDay
7,-15.4
266,19.28732325291724
267,15.108409929772007
268,859.2714277532276
2,1, 1,21, 0, 6, 0.00,60.00,WinterDesignDay
7,-15.4
266,19.288338839029384
267,15.1139054431496
268,859.2598382436195
2,1, 1,21, 0, 7, 0.00,60.00,WinterDesignDay
7,-15.4
266,19.285660928647297
267,15.121715939667084
268,859.251223467744
2,1, 1,21, 0, 8, 0.00,60.00,WinterDesignDay
7,-15.4
266,19.223136857095967
267,15.181670947426833
268,859.2580356965244
2,1, 1,21, 0, 9, 0.00,60.00,WinterDesignDay
7,-15.4
266,19.142401224046915
267,15.245635140630754
268,859.2987266910853
2,1, 1,21, 0,10, 0.00,60.00,WinterDesignDay
7,-15.4
266,19.055096334047549
267,15.302940384596802
268,859.36869070073
2,1, 1,21, 0,11, 0.00,60.00,WinterDesignDay
7,-15.4
266,18.964135916145577
267,15.35238604171219
268,859.4625467122072
2,1, 1,21, 0,12, 0.00,60.00,WinterDesignDay
7,-15.4
266,18.871212300648418
267,15.394031243589073
268,859.5753008627225
2,1, 1,21, 0,13, 0.00,60.00,WinterDesignDay
7,-15.4
266,18.777464455742014
267,15.428402188065182
268,859.7026298973674
2,1, 1,21, 0,14, 0.00,60.00,WinterDesignDay
7,-15.4
266,18.68366692242635
267,15.456238350478767
268,859.840915843914
2,1, 1,21, 0,15, 0.00,60.00,WinterDesignDay
7,-15.4
266,18.590351780182414
267,15.478346508512696
268,859.9871973824054
2,1, 1,21, 0,16, 0.00,60.00,WinterDesignDay
7,-15.4
266,18.49788653537707
267,15.495518889646658
268,860.139088195149
2,1, 1,21, 0,17, 0.00,60.00,WinterDesignDay
7,-15.4
266,18.406525224436334
267,15.508494605794177
268,860.2946875907794
2,1, 1,21, 0,18, 0.00,60.00,WinterDesignDay
7,-15.4
266,18.31644269707708
267,15.517936801446123
268,860.4524955099439
2,1, 1,21, 0,19, 0.00,60.00,WinterDesignDay
7,-15.4
266,18.22775796136297
267,15.52442992081382
268,860.6113371054618
2,1, 1,21, 0,20, 0.00,60.00,WinterDesignDay
7,-15.4
266,18.14055026756703
267,15.528478991104756
268,860.7702984865018
2,1, 1,21, 0,21, 0.00,60.00,WinterDesignDay
7,-15.4
266,18.054870303729339
267,15.530516926910194
268,860.9286733983506
2,1, 1,21, 0,22, 0.00,60.00,WinterDesignDay
7,-15.4
266,17.97074806440863
267,15.530909270297208
268,861.0859197710994
2,1, 1,21, 0,23, 0.00,60.00,WinterDesignDay
7,-15.4
266,17.88819843414462
267,15.529965660298436
268,861.2416247650441
2,1, 1,21, 0,24, 0.00,60.00,WinterDesignDay
7,-15.4
266,17.807225187526919
267,15.52794355766057
268,861.3954769143177
1,CHICAGO MIDWAY AP ANN CLG .4% CONDNS DB=>MWB HVAC Sizing Pass 1,  41.78, -87.75,  -6.00, 186.00
2,1, 7,21, 0, 1, 0.00,60.00,SummerDesignDay
7,25.854
266,25.04467030277185
267,71.76849595146173
268,865.7679993737829
2,1, 7,21, 0, 2, 0.00,60.00,SummerDesignDay
7,25.436
266,25.03232217648453
267,73.99276196848139
268,865.8565706330036
2,1, 7,21, 0, 3, 0.00,60.00,SummerDesignDay
7,25.138999999999997
266,24.99774532783563
267,76.3257644807043
268,865.8716169518654
2,1, 7,21, 0, 4, 0.00,60.00,SummerDesignDay
7,24.874999999999998
266,24.913606594383127
267,78.4651341122466
268,865.842802714151
2,1, 7,21, 0, 5, 0.00,60.00,SummerDesignDay
7,24.665999999999998
266,24.84293200281319
267,80.10610204231966
268,865.7921674989387
2,1, 7,21, 0, 6, 0.00,60.00,SummerDesignDay
7,24.709999999999999
266,24.92687718179968
267,80.68237390461646
268,865.7102394069975
2,1, 7,21, 0, 7, 0.00,60.00,SummerDesignDay
7,25.160999999999999
266,25.023439279219354
267,80.17559277426438
268,865.5933588589035
2,1, 7,21, 0, 8, 0.00,60.00,SummerDesignDay
7,26.326999999999999
266,25.05660377124213
267,77.79472409588922
268,865.4935820114448
2,1, 7,21, 0, 9, 0.00,60.00,SummerDesignDay
7,27.933
266,25.102558517863117
267,74.72004409568129
268,865.3361176705835
2,1, 7,21, 0,10, 0.00,60.00,SummerDesignDay
7,29.494999999999999
266,25.150139021237658
267,71.5918635378057
268,865.0886984122295
2,1, 7,21, 0,11, 0.00,60.00,SummerDesignDay
7,30.881
266,25.19438392141944
267,68.81140835341094
268,864.7833465229362
2,1, 7,21, 0,12, 0.00,60.00,SummerDesignDay
7,31.926
266,25.221529452358767
267,66.63593267727674
268,864.4578669594746
2,1, 7,21, 0,13, 0.00,60.00,SummerDesignDay
7,32.696
266,25.235831584358708
267,64.9551124167323
268,864.1570915251595
2,1, 7,21, 0,14, 0.00,60.00,SummerDesignDay
7,33.235
266,25.246346790231998
267,63.424441978670518
268,863.8996972109344
2,1, 7,21, 0,15, 0.00,60.00,SummerDesignDay
7,33.4
266,25.250853266397216
267,62.02915653351186
268,863.7151283032209
2,1, 7,21, 0,16, 0.00,60.00,SummerDesignDay
7,33.06999999999999
266,25.235779683375733
267,60.98158764646915
268,863.6430581134863
2,1, 7,21, 0,17, 0.00,60.00,SummerDesignDay
7,32.432
266,25.213534634556195
267,60.185765217168547
268,863.7053306479854
2,1, 7,21, 0,18, 0.00,60.00,SummerDesignDay
7,31.618
266,25.18862007335266
267,59.49072099820606
268,863.8921871314932
2,1, 7,21, 0,19, 0.00,60.00,SummerDesignDay
7,30.463
266,25.15974643646988
267,59.523237188294967
268,864.192531291618
2,1, 7,21, 0,20, 0.00,60.00,SummerDesignDay
7,29.363
266,25.134422157133373
267,60.43627724586147
268,864.5805248009514
2,1, 7,21, 0,21, 0.00,60.00,SummerDesignDay
7,28.505
266,25.115793131957106
267,61.908279194647779
268,864.9664696325856
2,1, 7,21, 0,22, 0.00,60.00,SummerDesignDay
7,27.712999999999999
266,25.09517777655205
267,63.50736117485089
268,865.3123997444517
2,1, 7,21, 0,23, 0.00,60.00,SummerDesignDay
7,27.030999999999997
266,25.07671897537358
267,65.15331025930323
268,865.6137426371857
2,1, 7,21, 0,24, 0.00,60.00,SummerDesignDay
7,26.414999999999997
266,25.060681860423327
267,66.83542445421583
268,865.8583649080194
1,CHICAGO MIDWAY AP ANN CLG 1% CONDNS DB=>MWB HVAC Sizing Pass 1,  41.78, -87.75,  -6.00, 186.00
2,1, 7,21, 0, 1, 0.00,60.00,SummerDesignDay
7,24.454
266,24.95446313877062
267,73.28032517812369
268,866.2124377398213
2,1, 7,21, 0, 2, 0.00,60.00,SummerDesignDay
7,24.035999999999999
266,24.831682948231724
267,75.58292058469324
268,866.1541190527782
2,1, 7,21, 0, 3, 0.00,60.00,SummerDesignDay
7,23.739
266,24.71540026884978
267,77.42170612176177
268,866.0739014242358
2,1, 7,21, 0, 4, 0.00,60.00,SummerDesignDay
7,23.475
266,24.601682773666775
267,78.92239916739786
268,865.9988133628801
2,1, 7,21, 0, 5, 0.00,60.00,SummerDesignDay
7,23.266000000000003
266,24.5074650366618
267,80.08239728530569
268,865.9393419862109
2,1, 7,21, 0, 6, 0.00,60.00,SummerDesignDay
7,23.310000000000004
266,24.58019239794342
267,80.25996319453307
268,865.8763057228072
2,1, 7,21, 0, 7, 0.00,60.00,SummerDesignDay
7,23.760999999999997
266,24.81031855728466
267,79.58171213256918
268,865.7727958698206
2,1, 7,21, 0, 8, 0.00,60.00,SummerDesignDay
7,24.927
266,25.014965094498775
267,78.51360883259858
268,865.6648447597739
2,1, 7,21, 0, 9, 0.00,60.00,SummerDesignDay
7,26.532999999999999
266,25.060236894499555
267,76.73977650049304
268,865.5763476461027
2,1, 7,21, 0,10, 0.00,60.00,SummerDesignDay
7,28.095
266,25.103415466253396
267,73.99756777137695
268,865.3900079557877
2,1, 7,21, 0,11, 0.00,60.00,SummerDesignDay
7,29.481
266,25.14390123617185
267,71.0686012693788
268,865.135072592732
2,1, 7,21, 0,12, 0.00,60.00,SummerDesignDay
7,30.525999999999998
266,25.1758894595217
267,68.55100574929446
268,864.855777972547
2,1, 7,21, 0,13, 0.00,60.00,SummerDesignDay
7,31.296
266,25.199572284993047
267,66.5422747778677
268,864.5960034769646
2,1, 7,21, 0,14, 0.00,60.00,SummerDesignDay
7,31.835
266,25.21888420899303
267,64.75641862829336
268,864.373479247535
2,1, 7,21, 0,15, 0.00,60.00,SummerDesignDay
7,32.0
266,25.213057440789507
267,63.16254782975362
268,864.2225055464037
2,1, 7,21, 0,16, 0.00,60.00,SummerDesignDay
7,31.67
266,25.203920722840679
267,61.87775927968227
268,864.1841342393583
2,1, 7,21, 0,17, 0.00,60.00,SummerDesignDay
7,31.032
266,25.182127283575928
267,60.96179936749053
268,864.2780477465063
2,1, 7,21, 0,18, 0.00,60.00,SummerDesignDay
7,30.217999999999998
266,25.15581580496413
267,60.195278846925777
268,864.4938065793056
2,1, 7,21, 0,19, 0.00,60.00,SummerDesignDay
7,29.063
266,25.126185559979434
267,60.180930123807829
268,864.818767710708
2,1, 7,21, 0,20, 0.00,60.00,SummerDesignDay
7,27.963
266,25.100629189028845
267,61.09214565641285
268,865.223551866329
2,1, 7,21, 0,21, 0.00,60.00,SummerDesignDay
7,27.104999999999998
266,25.077982569951396
267,62.598592270086758
268,865.6147589375494
2,1, 7,21, 0,22, 0.00,60.00,SummerDesignDay
7,26.312999999999997
266,25.056850041143464
267,64.29414614745147
268,865.9516209317175
2,1, 7,21, 0,23, 0.00,60.00,SummerDesignDay
7,25.631
266,25.038015669032846
267,66.11092996227045
268,866.2232312981219
2,1, 7,21, 0,24, 0.00,60.00,SummerDesignDay
7,25.015
266,25.020794487857203
267,68.03154360932908
268,866.4094427724659
1,ANNUAL,  41.78, -87.75,  -6.00, 186.00
2,1, 1, 1, 0, 1, 0.00,60.00,Sunday
7,2.75
266,20.286707461359425
267,44.44163940214347
268,870.8768234981858
2,1, 1, 1, 0, 2, 0.00,60.00,Sunday
7,-1.0
266,19.65715445034127
267,40.9864500355122
268,870.7151919470516
2,1, 1, 1, 0, 3, 0.00,60.00,Sunday
7,-1.0
266,19.539879263209806
267,36.83140119390382
268,870.9497213647869
2,1, 1, 1, 0, 4, 0.00,60.00,Sunday
7,-1.0
266,19.534068919919315
267,33.90703819304773
268,871.1942453670515
2,1, 1, 1, 0, 5, 0.00,60.00,Sunday
7,-1.0
266,19.514913123033943
267,31.913829343525216
268,871.4383168987979
2,1, 1, 1, 0, 6, 0.00,60.00,Sunday
7,-1.0
266,19.505718851074499
267,30.502325742167643
268,871.5850502185077
2,1, 1, 1, 0, 7, 0.00,60.00,Sunday
7,-0.375
266,19.53525906659368
267,29.3600488199673
268,871.6116758172881
2,1, 1, 1, 0, 8, 0.00,60.00,Sunday
7,0.0
266,19.554387030505049
267,28.407281110534436
268,871.7332052360453
2,1, 1, 1, 0, 9, 0.00,60.00,Sunday
7,0.625
266,19.56726298728792
267,27.427638917949147
268,871.6536837636727
2,1, 1, 1, 0,10, 0.00,60.00,Sunday
7,2.25
266,19.601857445515088
267,26.76173927234961
268,871.9224772891873
2,1, 1, 1, 0,11, 0.00,60.00,Sunday
7,3.0
266,19.61693051327903
267,26.803239794388543
268,872.3358264054654
2,1, 1, 1, 0,12, 0.00,60.00,Sunday
7,3.625
266,19.628594532881104
267,27.33816428560334
268,872.411751288378
2,1, 1, 1, 0,13, 0.00,60.00,Sunday
7,5.25
266,19.664945510714568
267,28.409378785793949
268,872.627581171105
2,1, 1, 1, 0,14, 0.00,60.00,Sunday
7,6.0
266,19.68055827008179
267,29.803380471739975
268,872.7900255197963
2,1, 1, 1, 0,15, 0.00,60.00,Sunday
7,6.0
266,19.681585478162814
267,31.252000725884295
268,872.6244005772546
2,1, 1, 1, 0,16, 0.00,60.00,Sunday
7,6.625
266,19.698750010605328
267,32.40949369631602
268,872.5370334239487
2,1, 1, 1, 0,17, 0.00,60.00,Sunday
7,7.0
266,19.70992665834497
267,33.43749137152787
268,872.480520172139
2,1, 1, 1, 0,18, 0.00,60.00,Sunday
7,7.0
266,19.710938670928344
267,34.49601037044161
268,872.2026310388005
2,1, 1, 1, 0,19, 0.00,60.00,Sunday
7,7.625
266,19.72588834670409
267,35.61461609334133
268,871.7061648519502
2,1, 1, 1, 0,20, 0.00,60.00,Sunday
7,8.625
266,19.74933238250614
267,37.47308343900997
268,871.586805845379
2,1, 1, 1, 0,21, 0.00,60.00,Sunday
7,9.0
266,19.75787526932457
267,39.80933662008373
268,871.5890428913045
2,1, 1, 1, 0,22, 0.00,60.00,Sunday
7,9.0
266,19.757404250475429
267,41.921236412777918
268,871.9015981356339
2,1, 1, 1, 0,23, 0.00,60.00,Sunday
7,9.0
266,19.75713265842975
267,43.98963216283626
268,872.1197548305196
2,1, 1, 1, 0,24, 0.00,60.00,Sunday
7,9.0
266,19.75715305951175
267,45.64769072320136
268,872.1681287475636
2,2, 1, 2, 0, 1, 0.00,60.00,Monday
7,9.0
266,19.757311485002366
267,46.91836968115445
268,872.0411738270962
2,2, 1, 2, 0, 2, 0.00,60.00,Monday
7,9.0
266,19.75754776133784
267,47.92319352419648
268,871.9763661255909
2,2, 1, 2, 0, 3, 0.00,60.00,Monday
7,8.375
266,19.742925412976566
267,48.7278493733512
268,871.9196728175043
2,2, 1, 2, 0, 4, 0.00,60.00,Monday
7,7.250000000000001
266,19.716303840676987
267,49.269097195248097
268,871.851953733566
2,2, 1, 2, 0, 5, 0.00,60.00,Monday
7,6.3
266,19.693785693460556
267,49.34417910709996
268,871.6687752975356
2,2, 1, 2, 0, 6, 0.00,60.00,Monday
7,5.6875
266,19.679544594428287
267,49.091870481196689
268,871.4081742576411
2,2, 1, 2, 0, 7, 0.00,60.00,Monday
7,5.1875
266,19.66850952666595
267,48.33881514562067
268,871.1221268572705
2,2, 1, 2, 0, 8, 0.00,60.00,Monday
7,5.25
266,19.67079497636427
267,47.38462324002815
268,870.6518229535012
2,2, 1, 2, 0, 9, 0.00,60.00,Monday
7,5.775
266,19.68261529539876
267,47.080861675200697
268,870.4468009659421
2,2, 1, 2, 0,10, 0.00,60.00,Monday
7,7.25
266,19.713289059257506
267,47.3981575384134
268,870.6579344145455
2,2, 1, 2, 0,11, 0.00,60.00,Monday
7,9.875
266,19.772123640614983
267,48.2146770481631
268,870.9650138645359
2,2, 1, 2, 0,12, 0.00,60.00,Monday
7,11.0
266,19.798027606246998
267,49.628445678505858
268,871.0966874017825
2,2, 1, 2, 0,13, 0.00,60.00,Monday
7,11.625
266,19.81218845148605
267,51.65632592489578
268,871.2255657538009
2,2, 1, 2, 0,14, 0.00,60.00,Monday
7,12.0
266,19.82069201989411
267,54.48511950209513
268,870.967479948593
2,2, 1, 2, 0,15, 0.00,60.00,Monday
7,12.625
266,19.83549985541849
267,57.044313929924189
268,870.3507674128749
2,2, 1, 2, 0,16, 0.00,60.00,Monday
7,13.625
266,19.85998209960583
267,59.78693679092674
268,869.5584166948406
2,2, 1, 2, 0,17, 0.00,60.00,Monday
7,14.625
266,19.884596689134289
267,62.623691673464708
268,868.7401506438597
2,2, 1, 2, 0,18, 0.00,60.00,Monday
7,15.625
266,19.909080921955409
267,64.81123283956099
268,867.4466115126653
2,2, 1, 2, 0,19, 0.00,60.00,Monday
7,16.0
266,19.918033053774307
267,66.45717897773145
268,865.9461917057709
2,2, 1, 2, 0,20, 0.00,60.00,Monday
7,16.0
266,19.917651471383608
267,67.78129574092242
268,864.9262359819604
2,2, 1, 2, 0,21, 0.00,60.00,Monday
7,16.0
266,19.917336115938768
267,68.77590282887695
268,864.9951876116165
2,2, 1, 2, 0,22, 0.00,60.00,Monday
7,15.375
266,19.901337132349288
267,69.39489395554647
268,866.2751038334576
2,2, 1, 2, 0,23, 0.00,60.00,Monday
7,14.375
266,19.876486947640755
267,68.84292336774132
268,867.0996642804829
2,2, 1, 2, 0,24, 0.00,60.00,Monday
7,12.75
266,19.836436415048185
267,66.86456565383873
268,867.0258646431346
2,3, 1, 3, 0, 1, 0.00,60.00,Tuesday
7,11.375
266,19.803239795313894
267,64.13549359030334
268,867.3371868963848
2,3, 1, 3, 0, 2, 0.00,60.00,Tuesday
7,10.375
266,19.780004229620738
267,61.77621053341043
268,867.3145906410155
2,3, 1, 3, 0, 3, 0.00,60.00,Tuesday
7,9.375
266,19.757172621066876
267,59.38487747647717
268,867.6214636619093
2,3, 1, 3, 0, 4, 0.00,60.00,Tuesday
7,8.375
266,19.734540173674448
267,56.81529894226615
268,867.9281297270335
2,3, 1, 3, 0, 5, 0.00,60.00,Tuesday
7,6.75
266,19.697067992193224
267,54.325928260437368
268,868.2282293383919
2,3, 1, 3, 0, 6, 0.00,60.00,Tuesday
7,6.0
266,19.68107963890499
267,51.83113760727457
268,868.4013276750388
2,3, 1, 3, 0, 7, 0.00,60.00,Tuesday
7,6.0
266,19.683251142009433
267,49.30806641062638
268,868.558922378451
2,3, 1, 3, 0, 8, 0.00,60.00,Tuesday
7,6.0
266,19.684386276183259
267,46.95702297617781
268,868.9399741852787
2,3, 1, 3, 0, 9, 0.00,60.00,Tuesday
7,6.0
266,19.682424605043779
267,44.96392013020751
268,869.3281181693576
2,3, 1, 3, 0,10, 0.00,60.00,Tuesday
7,6.0
266,19.68010700449832
267,42.880315922016908
268,869.7592131275269
2,3, 1, 3, 0,11, 0.00,60.00,Tuesday
7,6.0
266,19.679973093635085
267,40.469211165527678
268,870.001771259292
2,3, 1, 3, 0,12, 0.00,60.00,Tuesday
7,6.0
266,19.679205335678064
267,38.09094466618707
268,870.2657429145347
2,3, 1, 3, 0,13, 0.00,60.00,Tuesday
7,6.0
266,19.68004934642754
267,35.853698220389997
268,870.2314461514407
2,3, 1, 3, 0,14, 0.00,60.00,Tuesday
7,6.0
266,19.681879129995985
267,33.80306612859562
268,870.2095671276386
2,3, 1, 3, 0,15, 0.00,60.00,Tuesday
7,4.75
266,19.653226577287016
267,32.054264301612857
268,870.420832306565
2,3, 1, 3, 0,16, 0.00,60.00,Tuesday
7,4.0
266,19.638397909067665
267,30.700032972105136
268,870.3116937521273
2,3, 1, 3, 0,17, 0.00,60.00,Tuesday
7,2.75
266,19.61122474293009
267,30.02202370173524
268,870.4797195077689
2,3, 1, 3, 0,18, 0.00,60.00,Tuesday
7,1.375
266,19.582409449050834
267,29.841862912111
268,870.3512788384104
2,3, 1, 3, 0,19, 0.00,60.00,Tuesday
7,0.375
266,19.561659905795687
267,29.99811139501184
268,870.100492119189
2,3, 1, 3, 0,20, 0.00,60.00,Tuesday
7,0.625
266,19.569069430426464
267,30.109942059225945
268,870.1186336442587
2,3, 1, 3, 0,21, 0.00,60.00,Tuesday
7,1.0
266,19.57853270002271
267,30.072145182108814
268,870.2136571617293
2,3, 1, 3, 0,22, 0.00,60.00,Tuesday
7,1.0
266,19.580177908551833
267,29.693100427109227
268,870.1043666415143
2,3, 1, 3, 0,23, 0.00,60.00,Tuesday
7,0.375
266,19.56779890883695
267,29.00619794757938
268,869.6297170679924
2,3, 1, 3, 0,24, 0.00,60.00,Tuesday
7,0.0
266,19.560257364149189
267,27.972578806458985
268,869.1578643875979
2,4, 1, 4, 0, 1, 0.00,60.00,Wednesday
7,0.625
266,19.57530230889295
267,27.129831267465599
268,868.7711106457279
2,4, 1, 4, 0, 2, 0.00,60.00,Wednesday
7,0.375
266,19.570744980268036
267,26.807599985358015
268,868.5890491231469
2,4, 1, 4, 0, 3, 0.00,60.00,Wednesday
7,0.0
266,19.562652804632813
267,26.822449337185636
268,868.1947738543812
2,4, 1, 4, 0, 4, 0.00,60.00,Wednesday
7,0.0
266,19.563103645673335
267,26.915558742618069
268,867.3780566443379
2,4, 1, 4, 0, 5, 0.00,60.00,Wednesday
7,0.625
266,19.577295375483915
267,27.122511904697743
268,867.255840599033
2,4, 1, 4, 0, 6, 0.00,60.00,Wednesday
7,1.0
266,19.58593760272515
267,27.17273292196039
268,867.2055124258814
2,4, 1, 4, 0, 7, 0.00,60.00,Wednesday
7,1.0
266,19.585819948466815
267,27.315195507484007
268,867.001923585614
2,4, 1, 4, 0, 8, 0.00,60.00,Wednesday
7,1.0
266,19.585812801309915
267,27.334665284034839
268,866.403082733853
2,4, 1, 4, 0, 9, 0.00,60.00,Wednesday
7,1.0
266,19.585387564310396
267,27.452779667365417
268,865.6661415926374
2,4, 1, 4, 0,10, 0.00,60.00,Wednesday
7,1.125
266,19.587346838257447
267,27.290658122213267
268,865.5486442328565
2,4, 1, 4, 0,11, 0.00,60.00,Wednesday
7,1.6374999999999998
266,19.59753864043377
267,26.891112184826349
268,865.5344877313797
2,4, 1, 4, 0,12, 0.00,60.00,Wednesday
7,2.0875
266,19.606326356782998
267,26.62072165618146
268,865.943429470289
2,4, 1, 4, 0,13, 0.00,60.00,Wednesday
7,2.3249999999999999
266,19.610664512370748
267,26.515840270158394
268,866.4094696363723
2,4, 1, 4, 0,14, 0.00,60.00,Wednesday
7,2.8375
266,19.621692344252286
267,26.359107931172177
268,866.3175770709273
2,4, 1, 4, 0,15, 0.00,60.00,Wednesday
7,1.975
266,19.602180003541507
267,26.325042469471076
268,866.1836767231996
2,4, 1, 4, 0,16, 0.00,60.00,Wednesday
7,0.8625
266,19.577461239792365
267,26.355206123768775
268,865.1876966496953
2,4, 1, 4, 0,17, 0.00,60.00,Wednesday
7,-0.21249999999999998
266,19.554346150668218
267,26.436103229615286
268,864.7678637593718
2,4, 1, 4, 0,18, 0.00,60.00,Wednesday
7,-0.8875
266,19.54113012880095
267,26.69616451100375
268,864.5481589851984
2,4, 1, 4, 0,19, 0.00,60.00,Wednesday
7,-1.0
266,19.540516324152145
267,27.15632104901735
268,864.0905826544358
2,4, 1, 4, 0,20, 0.00,60.00,Wednesday
7,-1.0
266,19.540573755516129
267,27.687682676847908
268,863.2283441523315
2,4, 1, 4, 0,21, 0.00,60.00,Wednesday
7,-1.0
266,19.541868784375028
267,27.913968029471478
268,862.5055797176118
2,4, 1, 4, 0,22, 0.00,60.00,Wednesday
7,-1.0
266,19.5431946829242
267,28.07634115936657
268,862.6863108600435
2,4, 1, 4, 0,23, 0.00,60.00,Wednesday
7,-1.0
266,19.54255747698008
267,28.197769321995979
268,863.141055813199
2,4, 1, 4, 0,24, 0.00,60.00,Wednesday
7,-1.0
266,19.54230522757993
267,28.28634901385764
268,863.6095509442646
2,5, 1, 5, 0, 1, 0.00,60.00,Thursday
7,-1.0
266,19.542373050022964
267,28.374071107590895
268,864.0726804848198
2,5, 1, 5, 0, 2, 0.00,60.00,Thursday
7,-1.0
266,19.54247817738763
267,28.460106861155908
268,864.8277357043744
2,5, 1, 5, 0, 3, 0.00,60.00,Thursday
7,-1.0
266,19.542487212560788
267,28.518381820755346
268,865.7207626829317
2,5, 1, 5, 0, 4, 0.00,60.00,Thursday
7,-1.625
266,19.52903608185662
267,28.49828120118623
268,866.2092265296602
2,5, 1, 5, 0, 5, 0.00,60.00,Thursday
7,-2.625
266,19.507744661623986
267,28.066343859174549
268,866.2120405869338
2,5, 1, 5, 0, 6, 0.00,60.00,Thursday
7,-3.0
266,19.500362808242948
267,27.224216821243986
268,866.038369694893
2,5, 1, 5, 0, 7, 0.00,60.00,Thursday
7,-3.625
266,19.487606482707418
267,26.454298034060817
268,866.2442624691321
2,5, 1, 5, 0, 8, 0.00,60.00,Thursday
7,-4.0
266,19.480403697237564
267,25.65905508231378
268,866.395310956924
2,5, 1, 5, 0, 9, 0.00,60.00,Thursday
7,-4.625
266,19.466987553439119
267,25.000999549689206
268,866.2589768080226
2,5, 1, 5, 0,10, 0.00,60.00,Thursday
7,-5.0
266,19.459504683795623
267,24.474213510118685
268,866.2017916231653
2,5, 1, 5, 0,11, 0.00,60.00,Thursday
7,-4.375
266,19.465893083010735
267,23.86152491414908
268,866.2927394569713
2,5, 1, 5, 0,12, 0.00,60.00,Thursday
7,-4.0
266,19.4707946417687
267,23.36872983505956
268,866.6475183383616
2,5, 1, 5, 0,13, 0.00,60.00,Thursday
7,-4.0
266,19.470229551396849
267,23.086766243419875
268,866.8893997387677
2,5, 1, 5, 0,14, 0.00,60.00,Thursday
7,-3.375
266,19.485612430687654
267,22.714383964335885
268,867.1939857054691
2,5, 1, 5, 0,15, 0.00,60.00,Thursday
7,-4.25
266,19.46604234577748
267,22.39173516047337
268,867.3194861625881
2,5, 1, 5, 0,16, 0.00,60.00,Thursday
7,-6.25
266,19.424317826647447
267,21.957374846355596
268,867.1711699627679
2,5, 1, 5, 0,17, 0.00,60.00,Thursday
7,-7.625
266,19.4001018044717
267,21.264471353292394
268,866.8071011810266
2,5, 1, 5, 0,18, 0.00,60.00,Thursday
7,-8.0
266,19.398455216164355
267,20.480429275178346
268,866.4456785037958
2,5, 1, 5, 0,19, 0.00,60.00,Thursday
7,-8.625
266,19.389311151901983
267,19.707644018024398
268,866.1188169284719
2,5, 1, 5, 0,20, 0.00,60.00,Thursday
7,-10.25
266,19.35835780581291
267,18.93564864213513
268,865.8894578397674
2,5, 1, 5, 0,21, 0.00,60.00,Thursday
7,-11.625
266,19.271136922022895
267,18.17000280083237
268,865.5864586017101
2,5, 1, 5, 0,22, 0.00,60.00,Thursday
7,-12.625
266,19.094727266221136
267,17.52165741713397
268,865.2897727237559
2,5, 1, 5, 0,23, 0.00,60.00,Thursday
7,-13.625
266,18.911835006219783
267,16.91256514261679
268,865.17241801375
2,5, 1, 5, 0,24, 0.00,60.00,Thursday
7,-14.625
266,18.68577274108154
267,16.339566331785457
268,865.0661830241154
2,6, 1, 6, 0, 1, 0.00,60.00,Friday
7,-15.625
266,18.440184360002985
267,15.73075457599693
268,864.6049335926387
2,6, 1, 6, 0, 2, 0.00,60.00,Friday
7,-16.625
266,18.209198773313419
267,15.150428163422286
268,864.4883966987898
2,6, 1, 6, 0, 3, 0.00,60.00,Friday
7,-17.0
266,18.00183277106109
267,14.63542193136925
268,864.5079702387728
2,6, 1, 6, 0, 4, 0.00,60.00,Friday
7,-17.625
266,17.801863332155106
267,14.13663328856929
268,864.703501647715
2,6, 1, 6, 0, 5, 0.00,60.00,Friday
7,-18.0
266,17.599353218588218
267,13.670284089845735
268,864.8398183747216
2,6, 1, 6, 0, 6, 0.00,60.00,Friday
7,-18.0
266,17.437701325528616
267,13.259977113752275
268,864.9439426609748
2,6, 1, 6, 0, 7, 0.00,60.00,Friday
7,-18.625
266,17.268882847159597
267,12.976893119263244
268,865.1437544787981
2,6, 1, 6, 0, 8, 0.00,60.00,Friday
7,-19.0
266,17.188471120409589
267,12.68216965852004
268,865.4187189832908
2,6, 1, 6, 0, 9, 0.00,60.00,Friday
7,-18.375
266,17.35205520259294
267,12.266281133002446
268,865.4460578680394
2,6, 1, 6, 0,10, 0.00,60.00,Friday
7,-17.375
266,17.553854460277607
267,11.923907794343066
268,865.2674276052815
2,6, 1, 6, 0,11, 0.00,60.00,Friday
7,-16.375
266,17.733185462449819
267,11.715555449126894
268,865.1600298507226
2,6, 1, 6, 0,12, 0.00,60.00,Friday
7,-15.375
266,17.8725076234359
267,11.601399006940975
268,865.1580523848552
2,6, 1, 6, 0,13, 0.00,60.00,Friday
7,-14.375
266,18.00946053532807
267,11.58235866189489
268,864.7253649986138
2,6, 1, 6, 0,14, 0.00,60.00,Friday
7,-13.375
266,18.177846749995653
267,11.613925190623743
268,864.4369349645358
2,6, 1, 6, 0,15, 0.00,60.00,Friday
7,-12.375
266,18.318613422650889
267,11.700856192698586
268,864.4636839707937
2,6, 1, 6, 0,16, 0.00,60.00,Friday
7,-12.0
266,18.353746168464434
267,11.905709995989046
268,864.3464383708779
2,6, 1, 6, 0,17, 0.00,60.00,Friday
7,-12.0
266,18.180766477719304
267,12.228438179188693
268,864.0660068739921
2,6, 1, 6, 0,18, 0.00,60.00,Friday
7,-12.0
266,18.042831176501136
267,12.454768067210619
268,864.2110430136502
2,6, 1, 6, 0,19, 0.00,60.00,Friday
7,-12.0
266,17.97085166845236
267,12.596598187399398
268,864.7291937542512
2,6, 1, 6, 0,20, 0.00,60.00,Friday
7,-12.0
266,17.912316656361797
267,12.72637864965522
268,865.3414226919035
2,6, 1, 6, 0,21, 0.00,60.00,Friday
7,-12.0
266,17.86393373437973
267,12.888710151117394
268,865.9142554476333
2,6, 1, 6, 0,22, 0.00,60.00,Friday
7,-12.0
266,17.81822325655306
267,13.021489489302527
268,866.4833783188162
2,6, 1, 6, 0,23, 0.00,60.00,Friday
7,-12.0
266,17.78083569851364
267,13.123627458701549
268,866.9343467907002
2,6, 1, 6, 0,24, 0.00,60.00,Friday
7,-12.0
266,17.745042685754986
267,13.213103297555398
268,867.5185329391932
2,7, 1, 7, 0, 1, 0.00,60.00,Saturday
7,-12.625
266,17.665739475755517
267,13.32170750339826
268,867.8441781185906
2,7, 1, 7, 0, 2, 0.00,60.00,Saturday
7,-13.0
266,17.578553592719286
267,13.423036945189379
268,868.0348666783202
2,7, 1, 7, 0, 3, 0.00,60.00,Saturday
7,-13.0
266,17.519774127786307
267,13.481058601779815
268,868.1594127118409
2,7, 1, 7, 0, 4, 0.00,60.00,Saturday
7,-13.0
266,17.46153994429342
267,13.526407663038908
268,868.2808395327625
2,7, 1, 7, 0, 5, 0.00,60.00,Saturday
7,-13.0
266,17.41197809244206
267,13.553208359353487
268,868.3499060446459
2,7, 1, 7, 0, 6, 0.00,60.00,Saturday
7,-13.625
266,17.34414445371789
267,13.596221611491242
268,868.6269087322153
2,7, 1, 7, 0, 7, 0.00,60.00,Saturday
7,-14.0
266,17.25312892908685
267,13.63112447109642
268,868.847255272755
2,7, 1, 7, 0, 8, 0.00,60.00,Saturday
7,-13.375
266,17.31498489325115
267,13.452092362178459
268,869.0305265242598
2,7, 1, 7, 0, 9, 0.00,60.00,Saturday
7,-13.0
266,17.596955487109
267,13.151142705120519
268,869.319517330153