Program Version,EnergyPlus, Version 9.5.0-de239b2e5f, YMD=2022.11.04 21:31
1,5,Environment Title[],Latitude[deg],Longitude[deg],Time Zone[],Elevation[m]
2,8,Day of Simulation[],Month[],Day of Month[],DST Indicator[1=yes 0=no],Hour[],StartMinute[],EndMinute[],DayType
3,5,Cumulative Day of Simulation[],Month[],Day of Month[],DST Indicator[1=yes 0=no],DayType  ! When Daily Meters Requested
4,2,Cumulative Days of Simulation[],Month[]  ! When Monthly Meters Requested
5,1,Cumulative Days of Simulation[] ! When Run Period Meters Requested
6,1,Calendar Year of Simulation[] ! When Annual Meters Requested
48,9,InteriorLights:Electricity [J] !Monthly [Value,Min,Day,Hour,Minute,Max,Day,Hour,Minute]
85,9,InteriorEquipment:Electricity [J] !Monthly [Value,Min,Day,Hour,Minute,Max,Day,Hour,Minute]
123,9,Fans:Electricity [J] !Monthly [Value,Min,Day,Hour,Minute,Max,Day,Hour,Minute]
508,9,Heating:Electricity [J] !Monthly [Value,Min,Day,Hour,Minute,Max,Day,Hour,Minute]
470,9,Cooling:Electricity [J] !Monthly [Value,Min,Day,Hour,Minute,Max,Day,Hour,Minute]
End of Data Dictionary
1,CHICAGO MIDWAY AP ANN HTG 99.6% CONDNS DB HVAC Sizing Pass 1,  41.78, -87.75,  -6.00, 186.00
4,1, 1
48,0.0,0.0,21, 1,15,0.0,21, 1,15
85,8644389.041376006,90045.719181,21, 1,15,90045.719181,21, 1,15
123,3383761.2064004947,35247.51256667185,21, 1,15,35247.51256667185,21, 1,15
470,0.0,0.0,21, 1,15,0.0,21, 1,15
508,316777284.2199524,2680309.1015073608,21, 1,30,3461827.094435703,21,24,60
1,CHICAGO MIDWAY AP ANN HTG 99% CONDNS DB HVAC Sizing Pass 1,  41.78, -87.75,  -6.00, 186.00
4,1, 1
48,0.0,0.0,21, 1,15,0.0,21, 1,15
85,8644389.041376006,90045.719181,21, 1,15,90045.719181,21, 1,15
123,3383761.2064004947,35247.51256667185,21, 1,15,35247.51256667185,21, 1,15
470,0.0,0.0,21, 1,15,0.0,21, 1,15
508,304634582.685097,2312582.7176614708,21, 1,30,3374711.9373899956,21,24,60
1,CHICAGO MIDWAY AP ANN CLG .4% CONDNS DB=>MWB HVAC Sizing Pass 1,  41.78, -87.75,  -6.00, 186.00
4,1, 7
48,1042819.1978674582,10862.699977786007,21, 1,15,10862.699977786007,21, 1,15
85,8644389.041376006,90045.719181,21, 1,15,90045.719181,21, 1,15
123,3373326.7826670135,35121.54295663608,21, 3,15,35158.92919692713,21,17,30
470,22390015.21971137,0.0,21, 3,15,471648.165623961,21,17,30
508,0.0,0.0,21, 1,15,0.0,21, 1,15
1,CHICAGO MIDWAY AP ANN CLG 1% CONDNS DB=>MWB HVAC Sizing Pass 1,  41.78, -87.75,  -6.00, 186.00
4,1, 7
48,1042819.1978674582,10862.699977786007,21, 1,15,10862.699977786007,21, 1,15
85,8644389.041376006,90045.719181,21, 1,15,90045.719181,21, 1,15
123,3372841.9837985739,35121.54295663608,21, 1,15,35143.17875036356,21,17,30
470,16325790.95693828,0.0,21, 1,15,391905.8911341507,21,17,30
508,0.0,0.0,21, 1,15,0.0,21, 1,15
1,ANNUAL,  41.78, -87.75,  -6.00, 186.00
4,31, 1
48,0.0,0.0, 1, 1,15,0.0, 1, 1,15
85,267976060.28265924,90045.719181, 1, 1,15,90045.719181, 1, 1,15
123,104774998.57938534,35121.542956636076,24, 1,15,35247.51256667185, 1, 3,15
470,0.0,0.0, 1, 1,15,0.0, 1, 1,15
508,5377240787.020845,106513.78558789533, 2,21,45,3435488.4011009645, 6, 8,30
4,59, 2
48,0.0,0.0, 1, 1,15,0.0, 1, 1,15
85,242042893.1585309,90045.719181, 1, 1,15,90045.719181, 1, 1,15
123,94633430.96757929,35121.54295663608, 1, 1,15,35247.51256667185, 6, 1,60
470,0.0,0.0, 1, 1,15,0.0, 1, 1,15
508,4137030911.398596,113838.28735635699,24,17,15,3866199.285048199, 6,14,15
4,90, 3
48,0.0,0.0, 1, 1,15,0.0, 1, 1,15
85,267976060.28265924,90045.719181, 1, 1,15,90045.719181, 1, 1,15
123,104746175.8366726,35121.54295663608,12,14,30,35247.51256667185, 1, 1,15
470,0.0,0.0, 1, 1,15,0.0, 1, 1,15
508,3321882212.792918,0.0,12,14,30,3305566.834813602, 2, 7,45
4,120, 4
48,0.0,0.0, 1, 1,15,0.0, 1, 1,15
85,259331671.24128313,90045.719181, 1, 1,15,90045.719181, 1, 1,15
123,101208475.29051115,35121.54295663608, 1,16,45,35247.51256667185,10, 5,30
470,0.0,0.0, 1, 1,15,0.0, 1, 1,15
508,797424838.3449038,0.0, 1,16,45,1326485.4656926904,19, 6,30
4,151, 5
48,0.0,0.0, 1, 1,15,0.0, 1, 1,15
85,267976060.28265924,90045.719181, 1, 1,15,90045.719181, 1, 1,15
123,104551657.347812,35121.54295663608, 5, 8,60,35247.51256667185, 3, 3,15
470,0.0,0.0, 1, 1,15,0.0, 1, 1,15
508,320701966.08293369,0.0, 5, 8,60,1125125.943416153, 3, 5,45
4,181, 6
48,0.0,0.0, 1, 1,15,0.0, 1, 1,15
85,259331671.24128313,90045.719181, 1, 1,15,90045.719181, 1, 1,15
123,101186703.88763455,35121.54295663608, 1,14,45,35201.794229441424,14,17,60
470,306395187.1609821,0.0, 1, 1,15,596544.2838583107,14,15,60
508,71769154.922408,0.0, 1,14,45,392494.81846063, 1, 1,15
4,212, 7
48,0.0,0.0, 1, 1,15,0.0, 1, 1,15
85,267976060.28265924,90045.719181, 1, 1,15,90045.719181, 1, 1,15
123,104562085.95988621,35121.54295663608, 1,20,45,35208.01806612409,17,16,30
470,467201693.1042928,0.0, 1,20,45,598084.0220021848,17,16,15
508,0.0,0.0, 1, 1,15,0.0, 1, 1,15
4,243, 8
48,0.0,0.0, 1, 1,15,0.0, 1, 1,15
85,267976060.28265924,90045.719181, 1, 1,15,90045.719181, 1, 1,15
123,104564015.39414977,35121.54295663608, 1, 1,15,35247.51256667185, 6, 1,15
470,428381204.4760821,0.0, 1, 1,15,661513.2177904883, 6, 1,15
508,0.0,0.0, 1, 1,15,0.0, 1, 1,15
4,273, 9
48,0.0,0.0, 1, 1,15,0.0, 1, 1,15
85,259331671.24128313,90045.719181, 1, 1,15,90045.719181, 1, 1,15
123,101174929.21220289,35121.54295663608, 1, 3,15,35247.51256667185, 6,16,45
470,233969293.03535608,0.0, 1, 3,15,685356.1425227084, 6,16,45
508,0.0,0.0, 1, 1,15,0.0, 1, 1,15
4,304,10
48,0.0,0.0, 1, 1,15,0.0, 1, 1,15
85,267976060.28265924,90045.719181, 1, 1,15,90045.719181, 1, 1,15
123,104568219.33798766,35121.54295663608, 1, 1,15,35247.51256667185,23, 3,15
470,53947787.18682529,0.0, 1, 1,15,484089.813868274, 4,16,30
508,497828451.51088628,0.0, 1, 1,15,1238362.478368454,28, 6,60
4,334,11
48,0.0,0.0, 1, 1,15,0.0, 1, 1,15
85,259331671.24128313,90045.719181, 1, 1,15,90045.719181, 1, 1,15
123,101276328.22621115,35121.54295663608, 1, 9,30,35247.51256667185, 3, 2,45
470,0.0,0.0, 1, 1,15,0.0, 1, 1,15
508,1542323437.0132158,0.0, 1, 9,30,2687929.9623605895,30, 7,60
4,365,12
48,0.0,0.0, 1, 1,15,0.0, 1, 1,15
85,267976060.28265924,90045.719181, 1, 1,15,90045.719181, 1, 1,15
123,104827543.8724187,35138.71349837574, 4,11,60,35247.51256667185, 1, 1,15
470,0.0,0.0, 1, 1,15,0.0, 1, 1,15
508,5549980933.008705,99809.98023529856,31,13,15,3462030.2727291795,24, 8,30
End of Data
 Number of Records Written=          80
