Program Version,EnergyPlus, Version 9.5.0-de239b2e5f, YMD=2023.02.01 09:35
1,5,Environment Title[],Latitude[deg],Longitude[deg],Time Zone[],Elevation[m]
2,8,Day of Simulation[],Month[],Day of Month[],DST Indicator[1=yes 0=no],Hour[],StartMinute[],EndMinute[],DayType
3,5,Cumulative Day of Simulation[],Month[],Day of Month[],DST Indicator[1=yes 0=no],DayType  ! When Daily Meters Requested
4,2,Cumulative Days of Simulation[],Month[]  ! When Monthly Meters Requested
5,1,Cumulative Days of Simulation[] ! When Run Period Meters Requested
6,1,Calendar Year of Simulation[] ! When Annual Meters Requested
48,9,InteriorLights:Electricity [J] !Monthly [Value,Min,Day,Hour,Minute,Max,Day,Hour,Minute]
85,9,InteriorEquipment:Electricity [J] !Monthly [Value,Min,Day,Hour,Minute,Max,Day,Hour,Minute]
123,9,Fans:Electricity [J] !Monthly [Value,Min,Day,Hour,Minute,Max,Day,Hour,Minute]
508,9,Heating:Electricity [J] !Monthly [Value,Min,Day,Hour,Minute,Max,Day,Hour,Minute]
470,9,Cooling:Electricity [J] !Monthly [Value,Min,Day,Hour,Minute,Max,Day,Hour,Minute]
End of Data Dictionary
1,CHICAGO MIDWAY AP ANN HTG 99.6% CONDNS DB HVAC Sizing Pass 1,  41.78, -87.75,  -6.00, 186.00
4,1, 1
48,0.0,0.0,21, 1,15,0.0,21, 1,15
85,8644389.041376006,90045.719181,21, 1,15,90045.719181,21, 1,15
123,3391434.2887316986,35327.44050762184,21, 1,15,35327.44050762184,21, 1,15
470,0.0,0.0,21, 1,15,0.0,21, 1,15
508,430447679.68352499,3733108.9790937656,21, 1,15,4516198.1569312489,21, 3,15
1,CHICAGO MIDWAY AP ANN HTG 99% CONDNS DB HVAC Sizing Pass 1,  41.78, -87.75,  -6.00, 186.00
4,1, 1
48,0.0,0.0,21, 1,15,0.0,21, 1,15
85,8644389.041376006,90045.719181,21, 1,15,90045.719181,21, 1,15
123,3391434.2887316986,35327.44050762184,21, 1,15,35327.44050762184,21, 1,15
470,0.0,0.0,21, 1,15,0.0,21, 1,15
508,423712145.93819686,3179653.5364989016,21, 1,15,4516198.1569312489,21, 6,15
1,CHICAGO MIDWAY AP ANN CLG .4% CONDNS DB=>MWB HVAC Sizing Pass 1,  41.78, -87.75,  -6.00, 186.00
4,1, 7
48,1042819.1978674582,10862.699977786007,21, 1,15,10862.699977786007,21, 1,15
85,8644389.041376006,90045.719181,21, 1,15,90045.719181,21, 1,15
123,3381289.243660337,35149.60823755813,21, 1,15,35327.44050762184,21,14,30
470,52799320.29209474,98374.00860326227,21, 5,30,889905.3624576134,21,15,60
508,0.0,0.0,21, 1,15,0.0,21, 1,15
1,CHICAGO MIDWAY AP ANN CLG 1% CONDNS DB=>MWB HVAC Sizing Pass 1,  41.78, -87.75,  -6.00, 186.00
4,1, 7
48,1042819.1978674582,10862.699977786007,21, 1,15,10862.699977786007,21, 1,15
85,8644389.041376006,90045.719181,21, 1,15,90045.719181,21, 1,15
123,3379745.5787532429,35149.60823755813,21, 1,15,35327.44050762184,21,15,45
470,45948601.638647917,25876.682136717227,21, 5,30,872244.8316397923,21,15,45
508,0.0,0.0,21, 1,15,0.0,21, 1,15
1,ANNUAL,  41.78, -87.75,  -6.00, 186.00
4,31, 1
48,0.0,0.0, 1, 1,15,0.0, 1, 1,15
85,267976060.28265924,90045.719181, 1, 1,15,90045.719181, 1, 1,15
123,104917752.85729316,35121.542956636076,24, 1,15,35327.44050762184, 1, 1,60
470,0.0,0.0, 1, 1,15,0.0, 1, 1,15
508,5232234527.81683,80180.01307957016, 2,21,60,4516198.1569312489, 6, 2,15
4,59, 2
48,0.0,0.0, 1, 1,15,0.0, 1, 1,15
85,242042893.1585309,90045.719181, 1, 1,15,90045.719181, 1, 1,15
123,94702837.9058802,35121.54295663608, 1, 1,15,35327.44050762184, 6, 1,15
470,0.0,0.0, 1, 1,15,0.0, 1, 1,15
508,3385102359.550415,0.0,10,13,30,4516198.1569312489, 6, 1,15
4,90, 3
48,0.0,0.0, 1, 1,15,0.0, 1, 1,15
85,267976060.28265924,90045.719181, 1, 1,15,90045.719181, 1, 1,15
123,104788643.93998835,35121.54295663608,11,10,15,35327.44050762184, 1, 1,15
470,43892.81433535102,0.0, 1, 1,15,21901.19751150158,14,16,45
508,2828781216.0708076,0.0,11,10,30,3887471.2476726078, 2, 7,30
4,120, 4
48,0.0,0.0, 1, 1,15,0.0, 1, 1,15
85,259331671.24128313,90045.719181, 1, 1,15,90045.719181, 1, 1,15
123,101205543.43287167,35121.54295663608, 1,12,30,35326.87943764156,19, 6,30
470,17301763.59502324,0.0, 1, 1,15,360765.5932896083, 7,16,60
508,634791552.7575271,0.0, 1,12,30,1152550.200884256,19, 6,30
4,151, 5
48,0.0,0.0, 1, 1,15,0.0, 1, 1,15
85,267976060.28265924,90045.719181, 1, 1,15,90045.719181, 1, 1,15
123,104549592.74259839,35121.54295663608, 1, 1,15,35232.324817210276, 3, 5,45
470,43580066.17633451,0.0, 1, 1,15,502937.8409439294, 9,17,15
508,196612525.29045496,0.0, 1, 1,15,1029427.5634040324, 3, 5,45
4,181, 6
48,0.0,0.0, 1, 1,15,0.0, 1, 1,15
85,259331671.24128313,90045.719181, 1, 1,15,90045.719181, 1, 1,15
123,101266765.31163737,35121.54295663608, 1,13,15,35327.44050762184,11,16,30
470,708476287.5383363,0.0, 1, 1,15,899870.4728020816,13,16,30
508,43678319.61992611,0.0, 1,13,15,335837.1751074692, 1, 1,15
4,212, 7
48,0.0,0.0, 1, 1,15,0.0, 1, 1,15
85,267976060.28265924,90045.719181, 1, 1,15,90045.719181, 1, 1,15
123,104636371.75403692,35121.54295663608, 1, 4,60,35327.44050762184,16,15,45
470,800314125.2097088,0.0, 1, 4,60,893444.2516941583,21,12,60
508,0.0,0.0, 1, 1,15,0.0, 1, 1,15
4,243, 8
48,0.0,0.0, 1, 1,15,0.0, 1, 1,15
85,267976060.28265924,90045.719181, 1, 1,15,90045.719181, 1, 1,15
123,104636938.31440227,35121.54295663608, 1, 1,15,35327.44050762184, 6, 1,15
470,758825578.9635959,0.0, 1, 1,15,886280.927306929,17,16,60
508,0.0,0.0, 1, 1,15,0.0, 1, 1,15
4,273, 9
48,0.0,0.0, 1, 1,15,0.0, 1, 1,15
85,259331671.24128313,90045.719181, 1, 1,15,90045.719181, 1, 1,15
123,101247897.36279725,35121.54295663608, 1, 3,15,35327.44050762184, 5,14,60
470,612512506.7392463,0.0, 1, 3,15,919687.4429546424, 6,15,60
508,0.0,0.0, 1, 1,15,0.0, 1, 1,15
4,304,10
48,0.0,0.0, 1, 1,15,0.0, 1, 1,15
85,267976060.28265924,90045.719181, 1, 1,15,90045.719181, 1, 1,15
123,104591325.61508359,35121.54295663608, 1, 1,15,35327.44050762184, 3,15,15
470,164339319.12422598,0.0, 1, 1,15,857219.9059838143, 4,13,60
508,438385285.7342234,0.0, 1, 1,15,1131986.9841956218,28, 6,60
4,334,11
48,0.0,0.0, 1, 1,15,0.0, 1, 1,15
85,259331671.24128313,90045.719181, 1, 1,15,90045.719181, 1, 1,15
123,101265195.38011791,35121.54295663608, 1, 8,30,35327.44050762184, 3, 4,60
470,7654041.882241401,0.0, 1, 1,15,311657.1097523565,10,14,30
508,1307488100.3860663,0.0, 1, 8,30,2715273.5441173447,30, 7,60
4,365,12
48,0.0,0.0, 1, 1,15,0.0, 1, 1,15
85,267976060.28265924,90045.719181, 1, 1,15,90045.719181, 1, 1,15
123,104943786.05617231,35121.54295663608, 5,11,45,35327.44050762184, 1, 1,15
470,0.0,0.0, 1, 1,15,0.0, 1, 1,15
508,5229927840.462066,0.0, 9,12,60,4516198.1569312489,19, 8,15
End of Data
 Number of Records Written=          80
