Program Version,EnergyPlus, Version 9.5.0-de239b2e5f, YMD=2022.12.14 17:01
1,5,Environment Title[],Latitude[deg],Longitude[deg],Time Zone[],Elevation[m]
2,8,Day of Simulation[],Month[],Day of Month[],DST Indicator[1=yes 0=no],Hour[],StartMinute[],EndMinute[],DayType
3,5,Cumulative Day of Simulation[],Month[],Day of Month[],DST Indicator[1=yes 0=no],DayType  ! When Daily Meters Requested
4,2,Cumulative Days of Simulation[],Month[]  ! When Monthly Meters Requested
5,1,Cumulative Days of Simulation[] ! When Run Period Meters Requested
6,1,Calendar Year of Simulation[] ! When Annual Meters Requested
48,9,InteriorLights:Electricity [J] !Monthly [Value,Min,Day,Hour,Minute,Max,Day,Hour,Minute]
85,9,InteriorEquipment:Electricity [J] !Monthly [Value,Min,Day,Hour,Minute,Max,Day,Hour,Minute]
123,9,Fans:Electricity [J] !Monthly [Value,Min,Day,Hour,Minute,Max,Day,Hour,Minute]
508,9,Heating:Electricity [J] !Monthly [Value,Min,Day,Hour,Minute,Max,Day,Hour,Minute]
470,9,Cooling:Electricity [J] !Monthly [Value,Min,Day,Hour,Minute,Max,Day,Hour,Minute]
End of Data Dictionary
1,CHICAGO MIDWAY AP ANN HTG 99.6% CONDNS DB HVAC Sizing Pass 1,  41.78, -87.75,  -6.00, 186.00
4,1, 1
48,0.0,0.0,21, 1,15,0.0,21, 1,15
85,8644389.041376006,90045.719181,21, 1,15,90045.719181,21, 1,15
123,3468335.6615776869,36128.49647476757,21, 1,15,36128.49647476757,21, 1,15
470,0.0,0.0,21, 1,15,0.0,21, 1,15
508,2361871999.3472559,23953272.904861884,21, 1,15,24727136.30531108,21,16,30
1,CHICAGO MIDWAY AP ANN HTG 99% CONDNS DB HVAC Sizing Pass 1,  41.78, -87.75,  -6.00, 186.00
4,1, 1
48,0.0,0.0,21, 1,15,0.0,21, 1,15
85,8644389.041376006,90045.719181,21, 1,15,90045.719181,21, 1,15
123,3468335.6615776869,36128.49647476757,21, 1,15,36128.49647476757,21, 1,15
470,0.0,0.0,21, 1,15,0.0,21, 1,15
508,2176176968.571747,21721447.902843689,21, 1,15,22994967.838725307,21,24,60
1,CHICAGO MIDWAY AP ANN CLG .4% CONDNS DB=>MWB HVAC Sizing Pass 1,  41.78, -87.75,  -6.00, 186.00
4,1, 7
48,1042819.1978674582,10862.699977786007,21, 1,15,10862.699977786007,21, 1,15
85,8644389.041376006,90045.719181,21, 1,15,90045.719181,21, 1,15
123,3384732.6138654069,35121.54295663608,21, 2,45,35466.985119117344,21,18,15
470,103145511.46315712,0.0,21, 2,45,2450595.65492252,21,17,60
508,0.0,0.0,21, 1,15,0.0,21, 1,15
1,CHICAGO MIDWAY AP ANN CLG 1% CONDNS DB=>MWB HVAC Sizing Pass 1,  41.78, -87.75,  -6.00, 186.00
4,1, 7
48,1042819.1978674582,10862.699977786007,21, 1,15,10862.699977786007,21, 1,15
85,8644389.041376006,90045.719181,21, 1,15,90045.719181,21, 1,15
123,3381450.489133937,35121.54295663608,21, 1,30,35356.785389558296,21,18,15
470,81381708.50683885,0.0,21, 1,30,2141240.4733646258,21,17,60
508,0.0,0.0,21, 1,15,0.0,21, 1,15
1,ANNUAL,  41.78, -87.75,  -6.00, 186.00
4,31, 1
48,0.0,0.0, 1, 1,15,0.0, 1, 1,15
85,267976060.28265924,90045.719181, 1, 1,15,90045.719181, 1, 1,15
123,106580537.4577486,35121.54295663608,24, 1,15,36128.49647476757, 1, 1,60
470,0.0,0.0, 1, 1,15,0.0, 1, 1,15
508,27591678696.187196,180000.0,24, 1,15,24451376.897337609, 6, 8,15
4,59, 2
48,0.0,0.0, 1, 1,15,0.0, 1, 1,15
85,242042893.1585309,90045.719181, 1, 1,15,90045.719181, 1, 1,15
123,96129111.34317516,35121.54295663608, 1, 1,15,36128.49647476757, 6, 1,15
470,0.0,0.0, 1, 1,15,0.0, 1, 1,15
508,19218540306.99178,180000.0, 1, 1,15,24727136.30531108, 6, 1,15
4,90, 3
48,0.0,0.0, 1, 1,15,0.0, 1, 1,15
85,267976060.28265924,90045.719181, 1, 1,15,90045.719181, 1, 1,15
123,106362172.49764785,35121.54295663608,12,15,30,36128.49647476757, 1, 1,15
470,0.0,0.0, 1, 1,15,0.0, 1, 1,15
508,17328953974.926809,0.0,12,15,30,19663064.408654844, 2, 7,30
4,120, 4
48,0.0,0.0, 1, 1,15,0.0, 1, 1,15
85,259331671.24128313,90045.719181, 1, 1,15,90045.719181, 1, 1,15
123,101728698.49339146,35121.54295663608, 2,11,45,36128.49647476757,10, 4,60
470,0.0,0.0, 1, 1,15,0.0, 1, 1,15
508,4785582317.394975,0.0, 2,11,45,8879137.320964862,24, 1,60
4,151, 5
48,0.0,0.0, 1, 1,15,0.0, 1, 1,15
85,267976060.28265924,90045.719181, 1, 1,15,90045.719181, 1, 1,15
123,104865891.22711511,35121.54295663608, 5,11,15,36128.49647476757, 3, 1,60
470,12956365.181695726,0.0, 1, 1,15,846472.6552153499, 9,18,15
508,2703768676.704018,0.0, 5,11,15,7323229.36957146, 3, 5,60
4,181, 6
48,0.0,0.0, 1, 1,15,0.0, 1, 1,15
85,259331671.24128313,90045.719181, 1, 1,15,90045.719181, 1, 1,15
123,101421353.52663942,35121.54295663608, 1,18,15,35505.88679710394,14,17,60
470,1129372762.7060099,0.0, 1, 1,15,2546251.845988086,14,17,60
508,761890602.9765023,0.0, 1,18,15,2274513.6365692645, 1, 1,15
4,212, 7
48,0.0,0.0, 1, 1,15,0.0, 1, 1,15
85,267976060.28265924,90045.719181, 1, 1,15,90045.719181, 1, 1,15
123,104715859.85853406,35121.54295663608, 1, 3,15,35490.39514407587,17,17,45
470,1254925729.5183039,0.0, 1, 3,15,2515033.560843345,17,17,45
508,6383374.605595986,0.0, 1, 1,15,355818.1324301583, 2, 6,15
4,243, 8
48,0.0,0.0, 1, 1,15,0.0, 1, 1,15
85,267976060.28265924,90045.719181, 1, 1,15,90045.719181, 1, 1,15
123,104683447.7005907,35121.54295663608, 1, 1,15,35489.73050888485,11,16,30
470,972959372.3764993,0.0, 1, 1,15,2493885.312867555,11,16,30
508,7591709.937511606,0.0, 1, 1,15,529879.542380886,20, 6,45
4,273, 9
48,0.0,0.0, 1, 1,15,0.0, 1, 1,15
85,259331671.24128313,90045.719181, 1, 1,15,90045.719181, 1, 1,15
123,101344505.91069448,35121.54295663608, 1, 1,15,35709.922457182074, 6,17,15
470,746604240.7764553,0.0, 1, 1,15,2917071.9175069255, 6,16,60
508,230578884.30164106,0.0, 1, 1,15,1525089.2330771373,23, 5,15
4,304,10
48,0.0,0.0, 1, 1,15,0.0, 1, 1,15
85,267976060.28265924,90045.719181, 1, 1,15,90045.719181, 1, 1,15
123,105032427.43380156,35121.54295663608, 1,11,30,36128.49647476757,22,24,15
470,185218262.82032866,0.0, 1, 1,15,2086380.2599352587, 4,16,60
508,3888284204.9433348,0.0, 1,11,30,7703124.434193711,23, 7,60
4,334,11
48,0.0,0.0, 1, 1,15,0.0, 1, 1,15
85,259331671.24128313,90045.719181, 1, 1,15,90045.719181, 1, 1,15
123,102301752.9020961,35121.54295663608, 1,12,15,36128.49647476757, 2,22,15
470,0.0,0.0, 1, 1,15,0.0, 1, 1,15
508,9257156701.720034,0.0, 1,12,15,14562223.539332575,30, 8,15
4,365,12
48,0.0,0.0, 1, 1,15,0.0, 1, 1,15
85,267976060.28265924,90045.719181, 1, 1,15,90045.719181, 1, 1,15
123,106981836.59975356,35258.797786654744, 4,15,15,36128.49647476757, 1, 1,15
470,0.0,0.0, 1, 1,15,0.0, 1, 1,15
508,29568775325.797609,483064.5051479163,31,15,60,23882913.846777198,24, 8,15
End of Data
 Number of Records Written=          80
