Program Version,EnergyPlus, Version 9.5.0-de239b2e5f, YMD=2022.12.14 17:01
1,5,Environment Title[],Latitude[deg],Longitude[deg],Time Zone[],Elevation[m]
2,8,Day of Simulation[],Month[],Day of Month[],DST Indicator[1=yes 0=no],Hour[],StartMinute[],EndMinute[],DayType
3,5,Cumulative Day of Simulation[],Month[],Day of Month[],DST Indicator[1=yes 0=no],DayType  ! When Daily Report Variables Requested
4,2,Cumulative Days of Simulation[],Month[]  ! When Monthly Report Variables Requested
5,1,Cumulative Days of Simulation[] ! When Run Period Report Variables Requested
6,1,Calendar Year of Simulation[] ! When Annual Report Variables Requested
7,1,Environment,Site Outdoor Air Drybulb Temperature [C] !Hourly
266,1,ZONE 1,Zone Air Temperature [C] !Hourly
267,1,ZONE 1,Zone Air Relative Humidity [%] !Hourly
268,1,ZONE 1,Zone Air CO2 Concentration [ppm] !Hourly
End of Data Dictionary
1,CHICAGO MIDWAY AP ANN HTG 99.6% CONDNS DB HVAC Sizing Pass 1,  41.78, -87.75,  -6.00, 186.00
2,1, 1,21, 0, 1, 0.00,60.00,WinterDesignDay
7,-18.7
266,19.41541848894296
267,13.326976674928979
268,857.1831529693358
2,1, 1,21, 0, 2, 0.00,60.00,WinterDesignDay
7,-18.7
266,19.41545676675266
267,13.32927474509954
268,857.1774072135127
2,1, 1,21, 0, 3, 0.00,60.00,WinterDesignDay
7,-18.7
266,19.41265173757327
267,13.333586364505378
268,857.1729191341875
2,1, 1,21, 0, 4, 0.00,60.00,WinterDesignDay
7,-18.7
266,19.3694529967783
267,13.369829446539887
268,857.1744794819678
2,1, 1,21, 0, 5, 0.00,60.00,WinterDesignDay
7,-18.7
266,19.32400350753673
267,13.403435486384739
268,857.1876003326927
2,1, 1,21, 0, 6, 0.00,60.00,WinterDesignDay
7,-18.7
266,19.282956253936974
267,13.429521847503186
268,857.2096976251152
2,1, 1,21, 0, 7, 0.00,60.00,WinterDesignDay
7,-18.7
266,19.245985244333008
267,13.449163274167362
268,857.2384248709852
2,1, 1,21, 0, 8, 0.00,60.00,WinterDesignDay
7,-18.7
266,19.212550304553767
267,13.463494457087805
268,857.2718872223459
2,1, 1,21, 0, 9, 0.00,60.00,WinterDesignDay
7,-18.7
266,19.18226514947746
267,13.473407501578607
268,857.3085795693262
2,1, 1,21, 0,10, 0.00,60.00,WinterDesignDay
7,-18.7
266,19.154700435474699
267,13.47973523430748
268,857.3473147258278
2,1, 1,21, 0,11, 0.00,60.00,WinterDesignDay
7,-18.7
266,19.12955514561186
267,13.483120371640606
268,857.3871636556976
2,1, 1,21, 0,12, 0.00,60.00,WinterDesignDay
7,-18.7
266,19.106554501180378
267,13.484115611324228
268,857.4274017935592
2,1, 1,21, 0,13, 0.00,60.00,WinterDesignDay
7,-18.7
266,19.085457096288594
267,13.483187547170973
268,857.4674718712204
2,1, 1,21, 0,14, 0.00,60.00,WinterDesignDay
7,-18.7
266,19.066051267871573
267,13.480728609988216
268,857.5069520929812
2,1, 1,21, 0,15, 0.00,60.00,WinterDesignDay
7,-18.7
266,19.04815155918227
267,13.477067471788896
268,857.5455298126869
2,1, 1,21, 0,16, 0.00,60.00,WinterDesignDay
7,-18.7
266,19.03064309318045
267,13.473272922929722
268,857.583033036883
2,1, 1,21, 0,17, 0.00,60.00,WinterDesignDay
7,-18.7
266,19.009332789484668
267,13.472734798157685
268,857.6201077675805
2,1, 1,21, 0,18, 0.00,60.00,WinterDesignDay
7,-18.7
266,18.987339663515635
267,13.472510280554209
268,857.6574794668427
2,1, 1,21, 0,19, 0.00,60.00,WinterDesignDay
7,-18.7
266,18.965958382767803
267,13.471539165229367
268,857.6950342112724
2,1, 1,21, 0,20, 0.00,60.00,WinterDesignDay
7,-18.7
266,18.94532267841928
267,13.46979918901684
268,857.7325744964619
2,1, 1,21, 0,21, 0.00,60.00,WinterDesignDay
7,-18.7
266,18.925418746637648
267,13.467389962595723
268,857.7699173053328
2,1, 1,21, 0,22, 0.00,60.00,WinterDesignDay
7,-18.7
266,18.906213530341124
267,13.464416588828403
268,857.8069124729449
2,1, 1,21, 0,23, 0.00,60.00,WinterDesignDay
7,-18.7
266,18.887690506616754
267,13.460958820748932
268,857.8434380049342
2,1, 1,21, 0,24, 0.00,60.00,WinterDesignDay
7,-18.7
266,18.86983078114733
267,13.457090516217852
268,857.8793929596018
1,CHICAGO MIDWAY AP ANN HTG 99% CONDNS DB HVAC Sizing Pass 1,  41.78, -87.75,  -6.00, 186.00
2,1, 1,21, 0, 1, 0.00,60.00,WinterDesignDay
7,-15.4
266,19.457715148754557
267,15.11912015948273
268,858.9588896454802
2,1, 1,21, 0, 2, 0.00,60.00,WinterDesignDay
7,-15.4
266,19.45780075150731
267,15.121224165690667
268,858.953463922409
2,1, 1,21, 0, 3, 0.00,60.00,WinterDesignDay
7,-15.4
266,19.4562365674477
267,15.124556669044324
268,858.9491773299775
2,1, 1,21, 0, 4, 0.00,60.00,WinterDesignDay
7,-15.4
266,19.454557174967478
267,15.12764337138396
268,858.9459025729397
2,1, 1,21, 0, 5, 0.00,60.00,WinterDesignDay
7,-15.4
266,19.45402708144242
267,15.129358393720079
268,858.9433739035786
2,1, 1,21, 0, 6, 0.00,60.00,WinterDesignDay
7,-15.4
266,19.45351667142772
267,15.13087728377349
268,858.9413235974005
2,1, 1,21, 0, 7, 0.00,60.00,WinterDesignDay
7,-15.4
266,19.453008908178818
267,15.13223278654824
268,858.9396904104626
2,1, 1,21, 0, 8, 0.00,60.00,WinterDesignDay
7,-15.4
266,19.452514922964576
267,15.133433406973829
268,858.9384124407388
2,1, 1,21, 0, 9, 0.00,60.00,WinterDesignDay
7,-15.4
266,19.452031405710036
267,15.134497497290596
268,858.9374362544581
2,1, 1,21, 0,10, 0.00,60.00,WinterDesignDay
7,-15.4
266,19.451552289411774
267,15.13544596710849
268,858.9367172812035
2,1, 1,21, 0,11, 0.00,60.00,WinterDesignDay
7,-15.4
266,19.451069180210508
267,15.136297776403595
268,858.9362191409058
2,1, 1,21, 0,12, 0.00,60.00,WinterDesignDay
7,-15.4
266,19.450568778286735
267,15.137075692921794
268,858.935913372006
2,1, 1,21, 0,13, 0.00,60.00,WinterDesignDay
7,-15.4
266,19.450023550815044
267,15.13781226434568
268,858.9357806964242
2,1, 1,21, 0,14, 0.00,60.00,WinterDesignDay
7,-15.4
266,19.449337100292355
267,15.13860021738461
268,858.9358200478961
2,1, 1,21, 0,15, 0.00,60.00,WinterDesignDay
7,-15.4
266,19.448565713247637
267,15.139382127618149
268,858.9360366804482
2,1, 1,21, 0,16, 0.00,60.00,WinterDesignDay
7,-15.4
266,19.448480861019616
267,15.139456153507892
268,858.9363322828605
2,1, 1,21, 0,17, 0.00,60.00,WinterDesignDay
7,-15.4
266,19.44837278108568
267,15.139545336321735
268,858.9366035634644
2,1, 1,21, 0,18, 0.00,60.00,WinterDesignDay
7,-15.4
266,19.44823107185794
267,15.139655634244587
268,858.9368673501824
2,1, 1,21, 0,19, 0.00,60.00,WinterDesignDay
7,-15.4
266,19.448074194742085
267,15.13976775390111
268,858.9371306856347
2,1, 1,21, 0,20, 0.00,60.00,WinterDesignDay
7,-15.4
266,19.44790929441672
267,15.139875893945755
268,858.9373965857672
2,1, 1,21, 0,21, 0.00,60.00,WinterDesignDay
7,-15.4
266,19.44773928993641
267,15.139976823600496
268,858.9376664242119
2,1, 1,21, 0,22, 0.00,60.00,WinterDesignDay
7,-15.4
266,19.44756627345796
267,15.140070185077278
268,858.9379407982376
2,1, 1,21, 0,23, 0.00,60.00,WinterDesignDay
7,-15.4
266,19.44739134588795
267,15.140155510457153
268,858.9382197535992
2,1, 1,21, 0,24, 0.00,60.00,WinterDesignDay
7,-15.4
266,19.4472150146292
267,15.14023299241117
268,858.938503146916
1,CHICAGO MIDWAY AP ANN CLG .4% CONDNS DB=>MWB HVAC Sizing Pass 1,  41.78, -87.75,  -6.00, 186.00
2,1, 7,21, 0, 1, 0.00,60.00,SummerDesignDay
7,25.854
266,25.036425740262236
267,55.98330306976466
268,867.7780042180172
2,1, 7,21, 0, 2, 0.00,60.00,SummerDesignDay
7,25.436
266,25.016986625665909
267,61.23684937355953
268,867.7764562510947
2,1, 7,21, 0, 3, 0.00,60.00,SummerDesignDay
7,25.138999999999997
266,24.730012379728984
267,67.72699234252309
268,867.6509189183391
2,1, 7,21, 0, 4, 0.00,60.00,SummerDesignDay
7,24.874999999999998
266,24.339933034912855
267,73.52359301569352
268,867.5247398610169
2,1, 7,21, 0, 5, 0.00,60.00,SummerDesignDay
7,24.665999999999998
266,23.99255244409679
267,78.22094957773156
268,867.4358575306258
2,1, 7,21, 0, 6, 0.00,60.00,SummerDesignDay
7,24.709999999999999
266,23.845019373338748
267,81.24909008449218
268,867.3567570613283
2,1, 7,21, 0, 7, 0.00,60.00,SummerDesignDay
7,25.160999999999999
266,24.226732413945478
267,81.13241202282929
268,867.1600939491366
2,1, 7,21, 0, 8, 0.00,60.00,SummerDesignDay
7,26.326999999999999
266,24.960342810925419
267,78.38329125045567
268,866.7054286687751
2,1, 7,21, 0, 9, 0.00,60.00,SummerDesignDay
7,27.933
266,25.083115279083434
267,72.41999997429761
268,866.233656276769
2,1, 7,21, 0,10, 0.00,60.00,SummerDesignDay
7,29.494999999999999
266,25.10909840354251
267,62.77302168025082
268,865.9847513933453
2,1, 7,21, 0,11, 0.00,60.00,SummerDesignDay
7,30.881
266,25.133743413641836
267,54.75161548180963
268,865.8849488175973
2,1, 7,21, 0,12, 0.00,60.00,SummerDesignDay
7,31.926
266,25.15351104286883
267,49.7996450386662
268,865.833418619631
2,1, 7,21, 0,13, 0.00,60.00,SummerDesignDay
7,32.696
266,25.169054785257868
267,47.16083934333435
268,865.7859236225552
2,1, 7,21, 0,14, 0.00,60.00,SummerDesignDay
7,33.235
266,25.180944384335363
267,45.70899270527722
268,865.7255804688775
2,1, 7,21, 0,15, 0.00,60.00,SummerDesignDay
7,33.4
266,25.188394822246435
267,44.66242967414687
268,865.6710448218522
2,1, 7,21, 0,16, 0.00,60.00,SummerDesignDay
7,33.06999999999999
266,25.180411977165617
267,43.7986297650433
268,865.6589853375944
2,1, 7,21, 0,17, 0.00,60.00,SummerDesignDay
7,32.432
266,25.164657109151894
267,43.06421592896329
268,865.7160286676755
2,1, 7,21, 0,18, 0.00,60.00,SummerDesignDay
7,31.618
266,25.147377145110707
267,42.543309457066659
268,865.8437203612145
2,1, 7,21, 0,19, 0.00,60.00,SummerDesignDay
7,30.463
266,25.12494416366108
267,42.35583533362882
268,866.0516308948653
2,1, 7,21, 0,20, 0.00,60.00,SummerDesignDay
7,29.363
266,25.103974210407995
267,42.69689886711156
268,866.3499655946566
2,1, 7,21, 0,21, 0.00,60.00,SummerDesignDay
7,28.505
266,25.08906420904873
267,43.889286885295977
268,866.7003145592042
2,1, 7,21, 0,22, 0.00,60.00,SummerDesignDay
7,27.712999999999999
266,25.0755273243769
267,45.81937797114737
268,867.0588806801939
2,1, 7,21, 0,23, 0.00,60.00,SummerDesignDay
7,27.030999999999997
266,25.060697165111017
267,48.33693235902461
268,867.3874017006813
2,1, 7,21, 0,24, 0.00,60.00,SummerDesignDay
7,26.414999999999997
266,25.047962157957543
267,51.51035109705395
268,867.6443804501865
1,CHICAGO MIDWAY AP ANN CLG 1% CONDNS DB=>MWB HVAC Sizing Pass 1,  41.78, -87.75,  -6.00, 186.00
2,1, 7,21, 0, 1, 0.00,60.00,SummerDesignDay
7,24.454
266,24.89761195106746
267,60.20131563275996
268,868.181725046622
2,1, 7,21, 0, 2, 0.00,60.00,SummerDesignDay
7,24.035999999999999
266,24.41647842504417
267,67.09415982575723
268,868.0462400399376
2,1, 7,21, 0, 3, 0.00,60.00,SummerDesignDay
7,23.739
266,23.938756181592774
267,72.91551364525923
268,867.9961612671601
2,1, 7,21, 0, 4, 0.00,60.00,SummerDesignDay
7,23.475
266,23.49499591137965
267,77.7892763917794
268,868.0384056395114
2,1, 7,21, 0, 5, 0.00,60.00,SummerDesignDay
7,23.266000000000003
266,23.118825268431686
267,81.72266924711855
268,868.1513979107757
2,1, 7,21, 0, 6, 0.00,60.00,SummerDesignDay
7,23.310000000000004
266,22.953570864818809
267,84.11025024697453
268,868.2670948194912
2,1, 7,21, 0, 7, 0.00,60.00,SummerDesignDay
7,23.760999999999997
266,23.285219791937803
267,83.59834833498258
268,868.2494303732535
2,1, 7,21, 0, 8, 0.00,60.00,SummerDesignDay
7,24.927
266,24.155743834056986
267,80.26848419560658
268,867.9287559278691
2,1, 7,21, 0, 9, 0.00,60.00,SummerDesignDay
7,26.532999999999999
266,24.965425701363409
267,76.6320306594693
268,867.2779844155188
2,1, 7,21, 0,10, 0.00,60.00,SummerDesignDay
7,28.095
266,25.08532715395915
267,70.07824588402362
268,866.689463874602
2,1, 7,21, 0,11, 0.00,60.00,SummerDesignDay
7,29.481
266,25.10777492017695
267,60.83239608874403
268,866.3840807465474
2,1, 7,21, 0,12, 0.00,60.00,SummerDesignDay
7,30.525999999999998
266,25.126243146468313
267,53.69502201334583
268,866.2523793338487
2,1, 7,21, 0,13, 0.00,60.00,SummerDesignDay
7,31.296
266,25.14093483737951
267,49.450839281843318
268,866.1959970109273
2,1, 7,21, 0,14, 0.00,60.00,SummerDesignDay
7,31.835
266,25.151501627576129
267,47.00476298692345
268,866.158633991711
2,1, 7,21, 0,15, 0.00,60.00,SummerDesignDay
7,32.0
266,25.154707876042747
267,45.33463423575612
268,866.1401291285284
2,1, 7,21, 0,16, 0.00,60.00,SummerDesignDay
7,31.67
266,25.14908745056431
267,44.05633365695705
268,866.1698041145487
2,1, 7,21, 0,17, 0.00,60.00,SummerDesignDay
7,31.032
266,25.139080512174365
267,43.095923131567079
268,866.2699060646082
2,1, 7,21, 0,18, 0.00,60.00,SummerDesignDay
7,30.217999999999998
266,25.12201737928037
267,42.48579054748171
268,866.4398236122784
2,1, 7,21, 0,19, 0.00,60.00,SummerDesignDay
7,29.063
266,25.098759674969899
267,42.28423549437646
268,866.6885386439253
2,1, 7,21, 0,20, 0.00,60.00,SummerDesignDay
7,27.963
266,25.077233054591049
267,42.69324218278358
268,867.0243359420647
2,1, 7,21, 0,21, 0.00,60.00,SummerDesignDay
7,27.104999999999998
266,25.06027091526166
267,44.07319416587194
268,867.4019196904693
2,1, 7,21, 0,22, 0.00,60.00,SummerDesignDay
7,26.312999999999997
266,25.043478230971606
267,46.398282044421289
268,867.7677561172266
2,1, 7,21, 0,23, 0.00,60.00,SummerDesignDay
7,25.631
266,25.029518763862158
267,49.618927524674948
268,868.0681525013501
2,1, 7,21, 0,24, 0.00,60.00,SummerDesignDay
7,25.015
266,25.016620026241556
267,53.897375876672558
268,868.2386165404564
1,ANNUAL,  41.78, -87.75,  -6.00, 186.00
2,1, 1, 1, 0, 1, 0.00,60.00,Sunday
7,2.75
266,19.707179963334803
267,43.109247964786849
268,872.0484048102107
2,1, 1, 1, 0, 2, 0.00,60.00,Sunday
7,-1.0
266,19.6325446231554
267,41.20522301071447
268,871.9065983917966
2,1, 1, 1, 0, 3, 0.00,60.00,Sunday
7,-1.0
266,19.635344371632067
267,39.037154073438419
268,871.8243102559679
2,1, 1, 1, 0, 4, 0.00,60.00,Sunday
7,-1.0
266,19.639376509224296
267,37.239156519111407
268,871.7658060151429
2,1, 1, 1, 0, 5, 0.00,60.00,Sunday
7,-1.0
266,19.64231821661552
267,35.79576522929291
268,871.736452566673
2,1, 1, 1, 0, 6, 0.00,60.00,Sunday
7,-1.0
266,19.644416850434156
267,34.590928161504539
268,871.6802566942643
2,1, 1, 1, 0, 7, 0.00,60.00,Sunday
7,-0.375
266,19.655485660978269
267,33.52450967035831
268,871.5947991661085
2,1, 1, 1, 0, 8, 0.00,60.00,Sunday
7,0.0
266,19.66408572817444
267,32.53790206837984
268,871.5764165194468
2,1, 1, 1, 0, 9, 0.00,60.00,Sunday
7,0.625
266,19.673675931041804
267,31.553106292140464
268,871.4766093643389
2,1, 1, 1, 0,10, 0.00,60.00,Sunday
7,2.25
266,19.699274829897907
267,30.749528397663388
268,871.5672886733516
2,1, 1, 1, 0,11, 0.00,60.00,Sunday
7,3.0
266,19.712600894810725
267,30.299408133900415
268,871.7454961886701
2,1, 1, 1, 0,12, 0.00,60.00,Sunday
7,3.625
266,19.71939510008553
267,30.141937156636407
268,871.7996093490194
2,1, 1, 1, 0,13, 0.00,60.00,Sunday
7,5.25
266,19.744129679567388
267,30.313697935005778
268,871.9472399921443
2,1, 1, 1, 0,14, 0.00,60.00,Sunday
7,6.0
266,19.757669809489049
267,30.79754220178512
268,872.0928850417575
2,1, 1, 1, 0,15, 0.00,60.00,Sunday
7,6.0
266,19.755943953638597
267,31.461077607443927
268,872.0772917224907
2,1, 1, 1, 0,16, 0.00,60.00,Sunday
7,6.625
266,19.765371302025789
267,32.07895191185769
268,872.0988374180986
2,1, 1, 1, 0,17, 0.00,60.00,Sunday
7,7.0
266,19.77265036149572
267,32.70784327049839
268,872.1248203709412
2,1, 1, 1, 0,18, 0.00,60.00,Sunday
7,7.0
266,19.77221666688571
267,33.41045327324999
268,872.0035571361877
2,1, 1, 1, 0,19, 0.00,60.00,Sunday
7,7.625
266,19.782341155088767
267,34.218835554128109
268,871.7405877668223
2,1, 1, 1, 0,20, 0.00,60.00,Sunday
7,8.625
266,19.80031411410498
267,35.53388548906011
268,871.6724772300067
2,1, 1, 1, 0,21, 0.00,60.00,Sunday
7,9.0
266,19.807518020322964
267,37.22867970936783
268,871.6817389748904
2,1, 1, 1, 0,22, 0.00,60.00,Sunday
7,9.0
266,19.80686995920739
267,38.89932450453743
268,871.8900412395892
2,1, 1, 1, 0,23, 0.00,60.00,Sunday
7,9.0
266,19.80631017877256
267,40.61785701803262
268,872.0595508749839
2,1, 1, 1, 0,24, 0.00,60.00,Sunday
7,9.0
266,19.805901339165226
267,42.131144992786769
268,872.1336367654524
2,2, 1, 2, 0, 1, 0.00,60.00,Monday
7,9.0
266,19.80571170404405
267,43.42622083466557
268,872.095392673671
2,2, 1, 2, 0, 2, 0.00,60.00,Monday
7,9.0
266,19.805786925122388
267,44.556390733046409
268,872.0810712264002
2,2, 1, 2, 0, 3, 0.00,60.00,Monday
7,8.375
266,19.794881342562577
267,45.53826286833781
268,872.0584433843034
2,2, 1, 2, 0, 4, 0.00,60.00,Monday
7,7.250000000000001
266,19.773702740608248
267,46.317196347201448
268,872.015859030895
2,2, 1, 2, 0, 5, 0.00,60.00,Monday
7,6.3
266,19.75528868285679
267,46.75318728958555
268,871.8883161037895
2,2, 1, 2, 0, 6, 0.00,60.00,Monday
7,5.6875
266,19.743794359169109
267,46.94013676452569
268,871.6991735288344
2,2, 1, 2, 0, 7, 0.00,60.00,Monday
7,5.1875
266,19.735214403461869
267,46.760656793724837
268,871.4758677576625
2,2, 1, 2, 0, 8, 0.00,60.00,Monday
7,5.25
266,19.736102731762853
267,46.40100894950085
268,871.1344575288947
2,2, 1, 2, 0, 9, 0.00,60.00,Monday
7,5.775
266,19.74597380703784
267,46.34158329169533
268,870.9263168916687
2,2, 1, 2, 0,10, 0.00,60.00,Monday
7,7.25
266,19.771354050471623
267,46.59898799444906
268,870.9660509768944
2,2, 1, 2, 0,11, 0.00,60.00,Monday
7,9.875
266,19.81783730145299
267,47.189524876285968
268,871.0962625177209
2,2, 1, 2, 0,12, 0.00,60.00,Monday
7,11.0
266,19.838271315662568
267,48.28145918816244
268,871.1617013071561
2,2, 1, 2, 0,13, 0.00,60.00,Monday
7,11.625
266,19.847615922833165
267,49.937270103048948
268,871.2488022624857
2,2, 1, 2, 0,14, 0.00,60.00,Monday
7,12.0
266,19.854280274356595
267,52.28292481787827
268,871.0663618061425
2,2, 1, 2, 0,15, 0.00,60.00,Monday
7,12.625
266,19.865420591138784
267,54.55520473249774
268,870.6057134550076
2,2, 1, 2, 0,16, 0.00,60.00,Monday
7,13.625
266,19.884992391136188
267,57.07316197560036
268,869.9795997780957
2,2, 1, 2, 0,17, 0.00,60.00,Monday
7,14.625
266,19.904767322713817
267,59.75165167764837
268,869.2856385189629
2,2, 1, 2, 0,18, 0.00,60.00,Monday
7,15.625
266,19.92466413089143
267,61.99789791942147
268,868.1680356129951
2,2, 1, 2, 0,19, 0.00,60.00,Monday
7,16.0
266,19.932242027899649
267,63.85576138403323
268,866.8245791870645
2,2, 1, 2, 0,20, 0.00,60.00,Monday
7,16.0
266,19.931748564248964
267,65.45290786216104
268,865.8192958677505
2,2, 1, 2, 0,21, 0.00,60.00,Monday
7,16.0
266,19.93142622493215
267,66.73284253979677
268,865.7103080335875
2,2, 1, 2, 0,22, 0.00,60.00,Monday
7,15.375
266,19.91864226511972
267,67.63494778666012
268,866.6388418161823
2,2, 1, 2, 0,23, 0.00,60.00,Monday
7,14.375
266,19.898027036736285
267,67.49721778458101
268,867.241109114155
2,2, 1, 2, 0,24, 0.00,60.00,Monday
7,12.75
266,19.865652309245755
267,66.12573815514004
268,867.1534241377117
2,3, 1, 3, 0, 1, 0.00,60.00,Tuesday
7,11.375
266,19.838378800934437
267,64.09951043890718
268,867.3620675629288
2,3, 1, 3, 0, 2, 0.00,60.00,Tuesday
7,10.375
266,19.82002165525128
267,62.2964812809269
268,867.3133597931895
2,3, 1, 3, 0, 3, 0.00,60.00,Tuesday
7,9.375
266,19.802296222894119
267,60.435765067704718
268,867.5101326101161
2,3, 1, 3, 0, 4, 0.00,60.00,Tuesday
7,8.375
266,19.78474113254621
267,58.41922660535647
268,867.706978337309
2,3, 1, 3, 0, 5, 0.00,60.00,Tuesday
7,6.75
266,19.756075149652305
267,56.461350171072158
268,867.9020051770739
2,3, 1, 3, 0, 6, 0.00,60.00,Tuesday
7,6.0
266,19.742255182022065
267,54.50501334273309
268,868.0116180860819
2,3, 1, 3, 0, 7, 0.00,60.00,Tuesday
7,6.0
266,19.744611559227829
267,52.494697746832759
268,868.1170440142564
2,3, 1, 3, 0, 8, 0.00,60.00,Tuesday
7,6.0
266,19.746549247540519
267,50.57769062979983
268,868.3624441396592
2,3, 1, 3, 0, 9, 0.00,60.00,Tuesday
7,6.0
266,19.747497544370277
267,48.84819811037513
268,868.6263470612735
2,3, 1, 3, 0,10, 0.00,60.00,Tuesday
7,6.0
266,19.747157762566084
267,47.01542382450272
268,868.9308155658199
2,3, 1, 3, 0,11, 0.00,60.00,Tuesday
7,6.0
266,19.74575303066617
267,44.90237233581631
268,869.1415313789604
2,3, 1, 3, 0,12, 0.00,60.00,Tuesday
7,6.0
266,19.74526061217821
267,42.73327251400164
268,869.3692254635297
2,3, 1, 3, 0,13, 0.00,60.00,Tuesday
7,6.0
266,19.74554719465356
267,40.620650128448207
268,869.4052932682107
2,3, 1, 3, 0,14, 0.00,60.00,Tuesday
7,6.0
266,19.746419902638189
267,38.64587855415861
268,869.448287096802
2,3, 1, 3, 0,15, 0.00,60.00,Tuesday
7,4.75
266,19.726300629628768
267,36.94356891317258
268,869.6127115741133
2,3, 1, 3, 0,16, 0.00,60.00,Tuesday
7,4.0
266,19.711559809271795
267,35.567132572396108
268,869.5877094769388
2,3, 1, 3, 0,17, 0.00,60.00,Tuesday
7,2.75
266,19.693071327907519
267,34.637705726855518
268,869.7074779694759
2,3, 1, 3, 0,18, 0.00,60.00,Tuesday
7,1.375
266,19.668745572010935
267,34.057380951844439
268,869.6635245757086
2,3, 1, 3, 0,19, 0.00,60.00,Tuesday
7,0.375
266,19.65287051034249
267,33.68856139859986
268,869.5580165533584
2,3, 1, 3, 0,20, 0.00,60.00,Tuesday
7,0.625
266,19.65700916832261
267,33.332040849682808
268,869.5809597861112
2,3, 1, 3, 0,21, 0.00,60.00,Tuesday
7,1.0
266,19.66687367253954
267,32.9284691613136
268,869.6452365769943
2,3, 1, 3, 0,22, 0.00,60.00,Tuesday
7,1.0
266,19.668325136059115
267,32.39407693930255
268,869.6017558045119
2,3, 1, 3, 0,23, 0.00,60.00,Tuesday
7,0.375
266,19.65985239918968
267,31.728064644344344
268,869.3581347945533
2,3, 1, 3, 0,24, 0.00,60.00,Tuesday
7,0.0
266,19.653232843438827
267,30.880899710498448
268,869.0856913998536
2,4, 1, 4, 0, 1, 0.00,60.00,Wednesday
7,0.625
266,19.66405998287681
267,30.10461723034198
268,868.8311934708413
2,4, 1, 4, 0, 2, 0.00,60.00,Wednesday
7,0.375
266,19.662977430584477
267,29.601814108926886
268,868.6680772401027
2,4, 1, 4, 0, 3, 0.00,60.00,Wednesday
7,0.0
266,19.65574673062428
267,29.296247377088468
268,868.3758846226805
2,4, 1, 4, 0, 4, 0.00,60.00,Wednesday
7,0.0
266,19.656226444310869
267,29.051419859051678
268,867.8661182487792
2,4, 1, 4, 0, 5, 0.00,60.00,Wednesday
7,0.625
266,19.66636717435023
267,28.8987373378292
268,867.6918691076048
2,4, 1, 4, 0, 6, 0.00,60.00,Wednesday
7,1.0
266,19.674221061423674
267,28.702497269088395
268,867.5563715775734
2,4, 1, 4, 0, 7, 0.00,60.00,Wednesday
7,1.0
266,19.67406270972111
267,28.59053766139695
268,867.3517264380055
2,4, 1, 4, 0, 8, 0.00,60.00,Wednesday
7,1.0
266,19.673933401022724
267,28.4492880823981
268,866.9336951580336
2,4, 1, 4, 0, 9, 0.00,60.00,Wednesday
7,1.0
266,19.673906088493028
267,28.38372207659625
268,866.4364342195036
2,4, 1, 4, 0,10, 0.00,60.00,Wednesday
7,1.125
266,19.675659424216705
267,28.182236220535665
268,866.2344761828099
2,4, 1, 4, 0,11, 0.00,60.00,Wednesday
7,1.6374999999999998
266,19.683464908938125
267,27.84930163996536
268,866.0970204596833
2,4, 1, 4, 0,12, 0.00,60.00,Wednesday
7,2.0875
266,19.691070205342969
267,27.586154827972618
268,866.2094981588738
2,4, 1, 4, 0,13, 0.00,60.00,Wednesday
7,2.3249999999999999
266,19.694469138767287
267,27.40543383405636
268,866.3751618611218
2,4, 1, 4, 0,14, 0.00,60.00,Wednesday
7,2.8375
266,19.70203285309738
267,27.207135443450694
268,866.2982146244483
2,4, 1, 4, 0,15, 0.00,60.00,Wednesday
7,1.975
266,19.68923830873362
267,27.08548120230208
268,866.1834688642018
2,4, 1, 4, 0,16, 0.00,60.00,Wednesday
7,0.8625
266,19.667773683257864
267,27.017279891983283
268,865.617045026375
2,4, 1, 4, 0,17, 0.00,60.00,Wednesday
7,-0.21249999999999998
266,19.649817159495219
267,26.98186659193767
268,865.3109947975725
2,4, 1, 4, 0,18, 0.00,60.00,Wednesday
7,-0.8875
266,19.63808535669803
267,27.055920417124498
268,865.0823847945562
2,4, 1, 4, 0,19, 0.00,60.00,Wednesday
7,-1.0
266,19.63945909472696
267,27.242366096645826
268,864.7251140931294
2,4, 1, 4, 0,20, 0.00,60.00,Wednesday
7,-1.0
266,19.642282636677366
267,27.48853553639068
268,864.1406549475206
2,4, 1, 4, 0,21, 0.00,60.00,Wednesday
7,-1.0
266,19.64296477762706
267,27.62371253371302
268,863.6132452870537
2,4, 1, 4, 0,22, 0.00,60.00,Wednesday
7,-1.0
266,19.64437683420913
267,27.743783956991547
268,863.5388662961098
2,4, 1, 4, 0,23, 0.00,60.00,Wednesday
7,-1.0
266,19.64524294828776
267,27.837632416787728
268,863.636832187779
2,4, 1, 4, 0,24, 0.00,60.00,Wednesday
7,-1.0
266,19.644497156274686
267,27.915338639768046
268,863.7908815127914
2,5, 1, 5, 0, 1, 0.00,60.00,Thursday
7,-1.0
266,19.643619979340764
267,28.002598938895596
268,863.9914476093869
2,5, 1, 5, 0, 2, 0.00,60.00,Thursday
7,-1.0
266,19.642923535382179
267,28.093788218145144
268,864.3896441805424
2,5, 1, 5, 0, 3, 0.00,60.00,Thursday
7,-1.0
266,19.6422598078885
267,28.161307531877623
268,864.901800937733
2,5, 1, 5, 0, 4, 0.00,60.00,Thursday
7,-1.625
266,19.63223851539421
267,28.189276684662244
268,865.2462858868298
2,5, 1, 5, 0, 5, 0.00,60.00,Thursday
7,-2.625
266,19.614982788129173
267,27.991008021380674
268,865.3505305437225
2,5, 1, 5, 0, 6, 0.00,60.00,Thursday
7,-3.0
266,19.60777136838889
267,27.55826059234578
268,865.3547686362001
2,5, 1, 5, 0, 7, 0.00,60.00,Thursday
7,-3.625
266,19.59902910437519
267,27.12349286551439
268,865.5312799373263
2,5, 1, 5, 0, 8, 0.00,60.00,Thursday
7,-4.0
266,19.592308559146347
267,26.63922109615343
268,865.6670814403174
2,5, 1, 5, 0, 9, 0.00,60.00,Thursday
7,-4.625
266,19.584132189582819
267,26.184261127963489
268,865.6527496497859
2,5, 1, 5, 0,10, 0.00,60.00,Thursday
7,-5.0
266,19.579481053946738
267,25.77881041111811
268,865.663408795971
2,5, 1, 5, 0,11, 0.00,60.00,Thursday
7,-4.375
266,19.585730035041267
267,25.309389163257909
268,865.7460757194778
2,5, 1, 5, 0,12, 0.00,60.00,Thursday
7,-4.0
266,19.588933639765139
267,24.880419211678136
268,865.9639013585821
2,5, 1, 5, 0,13, 0.00,60.00,Thursday
7,-4.0
266,19.58257941661144
267,24.55885707419995
268,866.1415919068132
2,5, 1, 5, 0,14, 0.00,60.00,Thursday
7,-3.375
266,19.586950011561517
267,24.193863896949578
268,866.3643109858034
2,5, 1, 5, 0,15, 0.00,60.00,Thursday
7,-4.25
266,19.576283749962216
267,23.859412406458799
268,866.49951017135
2,5, 1, 5, 0,16, 0.00,60.00,Thursday
7,-6.25
266,19.542923747860735
267,23.4900331346509
268,866.4831412345156
2,5, 1, 5, 0,17, 0.00,60.00,Thursday
7,-7.625
266,19.519193660347495
267,22.979201067382378
268,866.3338264326193
2,5, 1, 5, 0,18, 0.00,60.00,Thursday
7,-8.0
266,19.518983549117914
267,22.379267720996638
268,866.1544346134745
2,5, 1, 5, 0,19, 0.00,60.00,Thursday
7,-8.625
266,19.517623645168859
267,21.765817280655317
268,865.9659167974403
2,5, 1, 5, 0,20, 0.00,60.00,Thursday
7,-10.25
266,19.49813054242354
267,21.143584686052639
268,865.803319180611
2,5, 1, 5, 0,21, 0.00,60.00,Thursday
7,-11.625
266,19.479832096504855
267,20.480721548191178
268,865.5799929172022
2,5, 1, 5, 0,22, 0.00,60.00,Thursday
7,-12.625
266,19.468451843305944
267,19.814026471263817
268,865.3176351492418
2,5, 1, 5, 0,23, 0.00,60.00,Thursday
7,-13.625
266,19.456834492979739
267,19.17576551569776
268,865.104360046462
2,5, 1, 5, 0,24, 0.00,60.00,Thursday
7,-14.625
266,19.44478175492761
267,18.540949874306233
268,864.8504162986719
2,6, 1, 6, 0, 1, 0.00,60.00,Friday
7,-15.625
266,19.432710797314024
267,17.897761509533983
268,864.3759059334008
2,6, 1, 6, 0, 2, 0.00,60.00,Friday
7,-16.625
266,19.420715098554707
267,17.291693301187658
268,864.0347969852466
2,6, 1, 6, 0, 3, 0.00,60.00,Friday
7,-17.0
266,19.416992843429925
267,16.73695398592065
268,863.7404555919112
2,6, 1, 6, 0, 4, 0.00,60.00,Friday
7,-17.625
266,19.411078539925158
267,16.20817832039825
268,863.5343904372699
2,6, 1, 6, 0, 5, 0.00,60.00,Friday
7,-18.0
266,19.406516520207803
267,15.706275714757176
268,863.3000379073111
2,6, 1, 6, 0, 6, 0.00,60.00,Friday
7,-18.0
266,19.408210415943015
267,15.257281563514797
268,863.0596847229856
2,6, 1, 6, 0, 7, 0.00,60.00,Friday
7,-18.625
266,19.401140914118476
267,14.888057730181832
268,862.8818997234448
2,6, 1, 6, 0, 8, 0.00,60.00,Friday
7,-19.0
266,19.39291754699125
267,14.564639865582754
268,862.7567726978178
2,6, 1, 6, 0, 9, 0.00,60.00,Friday
7,-18.375
266,19.403329563887544
267,14.263518440435992
268,862.5717653748295
2,6, 1, 6, 0,10, 0.00,60.00,Friday
7,-17.375
266,19.414950158101619
267,13.992321840924412
268,862.3623260570328
2,6, 1, 6, 0,11, 0.00,60.00,Friday
7,-16.375
266,19.425106045435319
267,13.764637440422753
268,862.250783483984
2,6, 1, 6, 0,12, 0.00,60.00,Friday
7,-15.375
266,19.435361455371849
267,13.562854926295753
268,862.2256638034011
2,6, 1, 6, 0,13, 0.00,60.00,Friday
7,-14.375
266,19.44667141282941
267,13.408596474446876
268,862.0107558876257
2,6, 1, 6, 0,14, 0.00,60.00,Friday
7,-13.375
266,19.458757037710475
267,13.298948333299965
268,861.8926235996303
2,6, 1, 6, 0,15, 0.00,60.00,Friday
7,-12.375
266,19.470954693135324
267,13.224091554585664
268,861.9502589048959
2,6, 1, 6, 0,16, 0.00,60.00,Friday
7,-12.0
266,19.475607254143445
267,13.193133688731207
268,861.9436699872599
2,6, 1, 6, 0,17, 0.00,60.00,Friday
7,-12.0
266,19.476539559678508
267,13.176817246395127
268,861.8301213237483
2,6, 1, 6, 0,18, 0.00,60.00,Friday
7,-12.0
266,19.480633600739
267,13.159625480715726
268,861.8806693871949
2,6, 1, 6, 0,19, 0.00,60.00,Friday
7,-12.0
266,19.484612932893464
267,13.151968916912879
268,862.1135830635489
2,6, 1, 6, 0,20, 0.00,60.00,Friday
7,-12.0
266,19.48715678189074
267,13.159539272986248
268,862.4146528765446
2,6, 1, 6, 0,21, 0.00,60.00,Friday
7,-12.0
266,19.48864242322999
267,13.196818213137174
268,862.7263644869647
2,6, 1, 6, 0,22, 0.00,60.00,Friday
7,-12.0
266,19.489385845148509
267,13.228216790047683
268,863.0557907753299
2,6, 1, 6, 0,23, 0.00,60.00,Friday
7,-12.0
266,19.489636471586253
267,13.260368506668862
268,863.3491489242318
2,6, 1, 6, 0,24, 0.00,60.00,Friday
7,-12.0
266,19.48959143115257
267,13.29648436787523
268,863.7197921816987
2,7, 1, 7, 0, 1, 0.00,60.00,Saturday
7,-12.625
266,19.481235540209874
267,13.337135894813628
268,863.9676267383607
2,7, 1, 7, 0, 2, 0.00,60.00,Saturday
7,-13.0
266,19.47453326860171
267,13.377138023532054
268,864.1356669883122
2,7, 1, 7, 0, 3, 0.00,60.00,Saturday
7,-13.0
266,19.47507102762296
267,13.407250949675082
268,864.2564701931382
2,7, 1, 7, 0, 4, 0.00,60.00,Saturday
7,-13.0
266,19.47561349659191
267,13.434158686857068
268,864.3585452723191
2,7, 1, 7, 0, 5, 0.00,60.00,Saturday
7,-13.0
266,19.47599423443178
267,13.45789860901468
268,864.4255058374279
2,7, 1, 7, 0, 6, 0.00,60.00,Saturday
7,-13.625
266,19.467587771545717
267,13.49009710461922
268,864.5855226445556
2,7, 1, 7, 0, 7, 0.00,60.00,Saturday
7,-14.0
266,19.46102319161401
267,13.513072900660445
268,864.7055566002862
2,7, 1, 7, 0, 8, 0.00,60.00,Saturday
7,-13.375
266,19.46969288914991
267,13.48314775149197
268,864.8159845591097
2,7, 1, 7, 0, 9, 0.00,60.00,Saturday
7,-13.0
266,19.475120683306768
267,13.46312825173682