Program Version,EnergyPlus, Version 9.5.0-de239b2e5f, YMD=2022.12.21 15:51
1,5,Environment Title[],Latitude[deg],Longitude[deg],Time Zone[],Elevation[m]
2,8,Day of Simulation[],Month[],Day of Month[],DST Indicator[1=yes 0=no],Hour[],StartMinute[],EndMinute[],DayType
3,5,Cumulative Day of Simulation[],Month[],Day of Month[],DST Indicator[1=yes 0=no],DayType  ! When Daily Meters Requested
4,2,Cumulative Days of Simulation[],Month[]  ! When Monthly Meters Requested
5,1,Cumulative Days of Simulation[] ! When Run Period Meters Requested
6,1,Calendar Year of Simulation[] ! When Annual Meters Requested
48,9,InteriorLights:Electricity [J] !Monthly [Value,Min,Day,Hour,Minute,Max,Day,Hour,Minute]
85,9,InteriorEquipment:Electricity [J] !Monthly [Value,Min,Day,Hour,Minute,Max,Day,Hour,Minute]
123,9,Fans:Electricity [J] !Monthly [Value,Min,Day,Hour,Minute,Max,Day,Hour,Minute]
508,9,Heating:Electricity [J] !Monthly [Value,Min,Day,Hour,Minute,Max,Day,Hour,Minute]
470,9,Cooling:Electricity [J] !Monthly [Value,Min,Day,Hour,Minute,Max,Day,Hour,Minute]
End of Data Dictionary
1,CHICAGO MIDWAY AP ANN HTG 99.6% CONDNS DB HVAC Sizing Pass 1,  41.78, -87.75,  -6.00, 186.00
4,1, 1
48,0.0,0.0,21, 1,15,0.0,21, 1,15
85,8644389.041376006,90045.719181,21, 1,15,90045.719181,21, 1,15
123,3422557.2742458537,35651.63827339435,21, 1,15,35651.63827339435,21, 1,15
470,0.0,0.0,21, 1,15,0.0,21, 1,15
508,1262546634.1532899,12503517.758176767,21, 1,15,13296371.698094096,21,24,60
1,CHICAGO MIDWAY AP ANN HTG 99% CONDNS DB HVAC Sizing Pass 1,  41.78, -87.75,  -6.00, 186.00
4,1, 1
48,0.0,0.0,21, 1,15,0.0,21, 1,15
85,8644389.041376006,90045.719181,21, 1,15,90045.719181,21, 1,15
123,3422557.2742458537,35651.63827339435,21, 1,15,35651.63827339435,21, 1,15
470,0.0,0.0,21, 1,15,0.0,21, 1,15
508,1153312875.7063633,10918171.321775813,21, 1,15,12345841.783914824,21,24,60
1,CHICAGO MIDWAY AP ANN CLG .4% CONDNS DB=>MWB HVAC Sizing Pass 1,  41.78, -87.75,  -6.00, 186.00
4,1, 7
48,1042819.1978674582,10862.699977786007,21, 1,15,10862.699977786007,21, 1,15
85,8644389.041376006,90045.719181,21, 1,15,90045.719181,21, 1,15
123,3382620.1410212379,35193.798667833515,21, 1,15,35379.4504310078,21,16,15
470,100261160.73641792,324866.64660651129,21, 5,30,1831878.5100614208,21,16,15
508,0.0,0.0,21, 1,15,0.0,21, 1,15
1,CHICAGO MIDWAY AP ANN CLG 1% CONDNS DB=>MWB HVAC Sizing Pass 1,  41.78, -87.75,  -6.00, 186.00
4,1, 7
48,1042819.1978674582,10862.699977786007,21, 1,15,10862.699977786007,21, 1,15
85,8644389.041376006,90045.719181,21, 1,15,90045.719181,21, 1,15
123,3380557.0830713657,35193.798667833515,21, 1,15,35306.24565347425,21,16,15
470,84207722.15581426,169788.69690960463,21, 5,30,1626005.3659825028,21,16,15
508,0.0,0.0,21, 1,15,0.0,21, 1,15
1,ANNUAL,  41.78, -87.75,  -6.00, 186.00
4,31, 1
48,0.0,0.0, 1, 1,15,0.0, 1, 1,15
85,267976060.28265924,90045.719181, 1, 1,15,90045.719181, 1, 1,15
123,105567336.84196554,35121.542956636076,24, 1,15,35651.63827339435, 1, 1,60
470,0.0,0.0, 1, 1,15,0.0, 1, 1,15
508,13637816149.466843,180000.0,24, 1,15,12907863.5471313, 6, 8,15
4,59, 2
48,0.0,0.0, 1, 1,15,0.0, 1, 1,15
85,242042893.1585309,90045.719181, 1, 1,15,90045.719181, 1, 1,15
123,95235438.19597465,35121.54295663608, 1, 1,15,35651.63827339435, 6, 1,15
470,0.0,0.0, 1, 1,15,0.0, 1, 1,15
508,9379876321.954705,0.0,24,13,15,13345155.130524587, 6, 1,15
4,90, 3
48,0.0,0.0, 1, 1,15,0.0, 1, 1,15
85,267976060.28265924,90045.719181, 1, 1,15,90045.719181, 1, 1,15
123,105240704.14312585,35121.54295663608,11,11,45,35651.63827339435, 1, 1,15
470,0.0,0.0, 1, 1,15,0.0, 1, 1,15
508,7431012228.772132,0.0,11,11,45,9489214.88612438, 1, 7,45
4,120, 4
48,0.0,0.0, 1, 1,15,0.0, 1, 1,15
85,259331671.24128313,90045.719181, 1, 1,15,90045.719181, 1, 1,15
123,101318428.41217344,35121.54295663608, 2, 8,60,35636.61151793857,17, 4,60
470,509645.13011928918,0.0, 1, 1,15,79588.57130873516, 4,16,30
508,1652034490.2711139,0.0, 2, 8,60,2973113.2656227659,17, 4,60
4,151, 5
48,0.0,0.0, 1, 1,15,0.0, 1, 1,15
85,267976060.28265924,90045.719181, 1, 1,15,90045.719181, 1, 1,15
123,104616058.29367197,35121.54295663608, 2,15,45,35305.920008856556, 3, 5,45
470,7819460.332675224,0.0, 1, 1,15,311302.8838242033,27,17,60
508,570026427.6414189,0.0, 2,15,45,2331180.053021987, 3, 5,45
4,181, 6
48,0.0,0.0, 1, 1,15,0.0, 1, 1,15
85,259331671.24128313,90045.719181, 1, 1,15,90045.719181, 1, 1,15
123,101326534.57250516,35121.54295663608, 1,13,60,35445.42505219567,14,15,60
470,1153203654.5295976,0.0, 1, 1,15,1974924.517926183,14,15,60
508,167266102.1320285,0.0, 1,13,60,761147.5306276712, 4,22,60
4,212, 7
48,0.0,0.0, 1, 1,15,0.0, 1, 1,15
85,267976060.28265924,90045.719181, 1, 1,15,90045.719181, 1, 1,15
123,104680062.51346016,35121.54295663608, 1,21,45,35336.62771672117,17,16,30
470,1380769589.7631193,0.0, 1,21,45,1725624.164301679,17,16,30
508,0.0,0.0, 1, 1,15,0.0, 1, 1,15
4,243, 8
48,0.0,0.0, 1, 1,15,0.0, 1, 1,15
85,267976060.28265924,90045.719181, 1, 1,15,90045.719181, 1, 1,15
123,104690525.30797945,35121.54295663608, 1, 1,15,35589.15619399479, 6, 1,30
470,1268419065.0174776,0.0, 1, 1,15,2013426.773553133, 6, 1,30
508,0.0,0.0, 1, 1,15,0.0, 1, 1,15
4,273, 9
48,0.0,0.0, 1, 1,15,0.0, 1, 1,15
85,259331671.24128313,90045.719181, 1, 1,15,90045.719181, 1, 1,15
123,101277849.91537345,35121.54295663608, 1, 4,60,35537.35355250909, 6,15,60
470,903335562.7141726,0.0, 1, 4,60,2149387.7673835896, 6,15,60
508,0.0,0.0, 1, 1,15,0.0, 1, 1,15
4,304,10
48,0.0,0.0, 1, 1,15,0.0, 1, 1,15
85,267976060.28265924,90045.719181, 1, 1,15,90045.719181, 1, 1,15
123,104691891.18962235,35121.54295663608, 1, 1,15,35534.70519464566,28, 6,60
470,208098437.30785079,0.0, 1, 1,15,1520320.1735319177, 4,15,15
508,1185077558.7560144,0.0, 1, 1,15,2832691.0908470347,28, 6,60
4,334,11
48,0.0,0.0, 1, 1,15,0.0, 1, 1,15
85,259331671.24128313,90045.719181, 1, 1,15,90045.719181, 1, 1,15
123,101478017.01997754,35121.54295663608, 1, 9,15,35651.63827339435, 3, 4,60
470,0.0,0.0, 1, 1,15,0.0, 1, 1,15
508,3423529399.476654,0.0, 1, 9,15,6412175.799539028,30, 7,60
4,365,12
48,0.0,0.0, 1, 1,15,0.0, 1, 1,15
85,267976060.28265924,90045.719181, 1, 1,15,90045.719181, 1, 1,15
123,105660891.05883812,35121.54295663608, 9,13,30,35651.63827339435, 1, 1,15
470,0.0,0.0, 1, 1,15,0.0, 1, 1,15
508,14070435476.832346,0.0, 9,13,30,12575750.901173763,24, 8,15
End of Data
 Number of Records Written=          80
