Program Version,EnergyPlus, Version 9.5.0-de239b2e5f, YMD=2023.02.01 09:35
1,5,Environment Title[],Latitude[deg],Longitude[deg],Time Zone[],Elevation[m]
2,8,Day of Simulation[],Month[],Day of Month[],DST Indicator[1=yes 0=no],Hour[],StartMinute[],EndMinute[],DayType
3,5,Cumulative Day of Simulation[],Month[],Day of Month[],DST Indicator[1=yes 0=no],DayType  ! When Daily Report Variables Requested
4,2,Cumulative Days of Simulation[],Month[]  ! When Monthly Report Variables Requested
5,1,Cumulative Days of Simulation[] ! When Run Period Report Variables Requested
6,1,Calendar Year of Simulation[] ! When Annual Report Variables Requested
7,1,Environment,Site Outdoor Air Drybulb Temperature [C] !Hourly
266,1,ZONE 1,Zone Air Temperature [C] !Hourly
267,1,ZONE 1,Zone Air Relative Humidity [%] !Hourly
268,1,ZONE 1,Zone Air CO2 Concentration [ppm] !Hourly
End of Data Dictionary
1,CHICAGO MIDWAY AP ANN HTG 99.6% CONDNS DB HVAC Sizing Pass 1,  41.78, -87.75,  -6.00, 186.00
2,1, 1,21, 0, 1, 0.00,60.00,WinterDesignDay
7,-18.7
266,19.149671035401999
267,9.053592525464142
268,700.9825093696937
2,1, 1,21, 0, 2, 0.00,60.00,WinterDesignDay
7,-18.7
266,19.167961181872493
267,9.052198689904314
268,700.9267304479178
2,1, 1,21, 0, 3, 0.00,60.00,WinterDesignDay
7,-18.7
266,19.01525474125571
267,9.143031586718351
268,700.9169288264541
2,1, 1,21, 0, 4, 0.00,60.00,WinterDesignDay
7,-18.7
266,18.72669752111105
267,9.279661778549614
268,701.1254069362695
2,1, 1,21, 0, 5, 0.00,60.00,WinterDesignDay
7,-18.7
266,18.457702085387923
267,9.375150432530809
268,701.5126952542286
2,1, 1,21, 0, 6, 0.00,60.00,WinterDesignDay
7,-18.7
266,18.20871460583922
267,9.442252746977534
268,701.9879543600837
2,1, 1,21, 0, 7, 0.00,60.00,WinterDesignDay
7,-18.7
266,17.978359762382416
267,9.49019181326552
268,702.498645676343
2,1, 1,21, 0, 8, 0.00,60.00,WinterDesignDay
7,-18.7
266,17.764630416874608
267,9.525522735295855
268,703.0148574742351
2,1, 1,21, 0, 9, 0.00,60.00,WinterDesignDay
7,-18.7
266,17.565911238876998
267,9.552482326806502
268,703.5204214534106
2,1, 1,21, 0,10, 0.00,60.00,WinterDesignDay
7,-18.7
266,17.380968837016444
267,9.573768324314325
268,704.0068375634322
2,1, 1,21, 0,11, 0.00,60.00,WinterDesignDay
7,-18.7
266,17.209113833473734
267,9.590927588741014
268,704.4698656449795
2,1, 1,21, 0,12, 0.00,60.00,WinterDesignDay
7,-18.7
266,17.049062119647716
267,9.605377330016621
268,704.9075351551327
2,1, 1,21, 0,13, 0.00,60.00,WinterDesignDay
7,-18.7
266,16.899680332651486
267,9.618029932783014
268,705.3197972694338
2,1, 1,21, 0,14, 0.00,60.00,WinterDesignDay
7,-18.7
266,16.760081466575234
267,9.629415562521182
268,705.7074776578061
2,1, 1,21, 0,15, 0.00,60.00,WinterDesignDay
7,-18.7
266,16.629554989192024
267,9.639833592984397
268,706.0717484568528
2,1, 1,21, 0,16, 0.00,60.00,WinterDesignDay
7,-18.7
266,16.50747347495447
267,9.649472045993506
268,706.4138751455744
2,1, 1,21, 0,17, 0.00,60.00,WinterDesignDay
7,-18.7
266,16.39320851084488
267,9.658492012743175
268,706.7351238275369
2,1, 1,21, 0,18, 0.00,60.00,WinterDesignDay
7,-18.7
266,16.286468937769898
267,9.666842284142423
268,707.0366538644416
2,1, 1,21, 0,19, 0.00,60.00,WinterDesignDay
7,-18.7
266,16.18654675199964
267,9.67472093179996
268,707.3196641456709
2,1, 1,21, 0,20, 0.00,60.00,WinterDesignDay
7,-18.7
266,16.093030249460278
267,9.682157447389157
268,707.5852026366415
2,1, 1,21, 0,21, 0.00,60.00,WinterDesignDay
7,-18.7
266,16.005418621464366
267,9.689226731278359
268,707.8344022261069
2,1, 1,21, 0,22, 0.00,60.00,WinterDesignDay
7,-18.7
266,15.923298966950745
267,9.695957955636619
268,708.0683394078112
2,1, 1,21, 0,23, 0.00,60.00,WinterDesignDay
7,-18.7
266,15.846261143119058
267,9.702391076278684
268,708.2880252656074
2,1, 1,21, 0,24, 0.00,60.00,WinterDesignDay
7,-18.7
266,15.774006306769263
267,9.708508583166698
268,708.4944102937612
1,CHICAGO MIDWAY AP ANN HTG 99% CONDNS DB HVAC Sizing Pass 1,  41.78, -87.75,  -6.00, 186.00
2,1, 1,21, 0, 1, 0.00,60.00,WinterDesignDay
7,-15.4
266,19.205526971689836
267,11.05830684674533
268,707.5533025644504
2,1, 1,21, 0, 2, 0.00,60.00,WinterDesignDay
7,-15.4
266,19.223240602157309
267,11.057874346278649
268,707.4772366912532
2,1, 1,21, 0, 3, 0.00,60.00,WinterDesignDay
7,-15.4
266,19.23389513262731
267,11.060719766425957
268,707.4162144852799
2,1, 1,21, 0, 4, 0.00,60.00,WinterDesignDay
7,-15.4
266,19.23493924256923
267,11.067721730222246
268,707.3735755240363
2,1, 1,21, 0, 5, 0.00,60.00,WinterDesignDay
7,-15.4
266,19.23987724457037
267,11.069698272908159
268,707.3456621461112
2,1, 1,21, 0, 6, 0.00,60.00,WinterDesignDay
7,-15.4
266,19.200333973669268
267,11.100070038800308
268,707.3351458201114
2,1, 1,21, 0, 7, 0.00,60.00,WinterDesignDay
7,-15.4
266,19.11956858770455
267,11.149550288958129
268,707.3885750255859
2,1, 1,21, 0, 8, 0.00,60.00,WinterDesignDay
7,-15.4
266,19.041184145376329
267,11.188004276301403
268,707.4983102788073
2,1, 1,21, 0, 9, 0.00,60.00,WinterDesignDay
7,-15.4
266,18.965742658446137
267,11.218624041167774
268,707.6394327691537
2,1, 1,21, 0,10, 0.00,60.00,WinterDesignDay
7,-15.4
266,18.89362776457125
267,11.243550057024438
268,707.7966507137767
2,1, 1,21, 0,11, 0.00,60.00,WinterDesignDay
7,-15.4
266,18.82499784706912
267,11.264309927142917
268,707.9604416384398
2,1, 1,21, 0,12, 0.00,60.00,WinterDesignDay
7,-15.4
266,18.75989586983797
267,11.281974489242094
268,708.1249295495456
2,1, 1,21, 0,13, 0.00,60.00,WinterDesignDay
7,-15.4
266,18.69828879264201
267,11.29729813318351
268,708.2865330349356
2,1, 1,21, 0,14, 0.00,60.00,WinterDesignDay
7,-15.4
266,18.640092247795427
267,11.310815934607448
268,708.4431212271886
2,1, 1,21, 0,15, 0.00,60.00,WinterDesignDay
7,-15.4
266,18.5851886444134
267,11.322910955423947
268,708.5934838330937
2,1, 1,21, 0,16, 0.00,60.00,WinterDesignDay
7,-15.4
266,18.533440186757468
267,11.333860249626
268,708.7369958960087
2,1, 1,21, 0,17, 0.00,60.00,WinterDesignDay
7,-15.4
266,18.484723283830733
267,11.343848190443917
268,708.8734029428971
2,1, 1,21, 0,18, 0.00,60.00,WinterDesignDay
7,-15.4
266,18.439065535650117
267,11.352907947621447
268,709.0025897609278
2,1, 1,21, 0,19, 0.00,60.00,WinterDesignDay
7,-15.4
266,18.396253733378435
267,11.361219349417365
268,709.1245372925517
2,1, 1,21, 0,20, 0.00,60.00,WinterDesignDay
7,-15.4
266,18.355946045057313
267,11.369006544812676
268,709.2394730731661
2,1, 1,21, 0,21, 0.00,60.00,WinterDesignDay
7,-15.4
266,18.31797381815845
267,11.376329808762798
268,709.3478288990098
2,1, 1,21, 0,22, 0.00,60.00,WinterDesignDay
7,-15.4
266,18.282362621902864
267,11.38311607853916
268,709.4499338691187
2,1, 1,21, 0,23, 0.00,60.00,WinterDesignDay
7,-15.4
266,18.248799881113336
267,11.38954136025052
268,709.5460743400918
2,1, 1,21, 0,24, 0.00,60.00,WinterDesignDay
7,-15.4
266,18.217178245979395
267,11.395611902041907
268,709.6366593012338
1,CHICAGO MIDWAY AP ANN CLG .4% CONDNS DB=>MWB HVAC Sizing Pass 1,  41.78, -87.75,  -6.00, 186.00
2,1, 7,21, 0, 1, 0.00,60.00,SummerDesignDay
7,25.854
266,25.04346532942314
267,67.07314850091982
268,797.3629360209154
2,1, 7,21, 0, 2, 0.00,60.00,SummerDesignDay
7,25.436
266,25.03262195622686
267,68.62336781874022
268,799.0255122020917
2,1, 7,21, 0, 3, 0.00,60.00,SummerDesignDay
7,25.138999999999997
266,25.025155141449397
267,70.02890546891999
268,800.2943648105
2,1, 7,21, 0, 4, 0.00,60.00,SummerDesignDay
7,24.874999999999998
266,25.017450401705007
267,71.29562085375525
268,801.1415542633836
2,1, 7,21, 0, 5, 0.00,60.00,SummerDesignDay
7,24.665999999999998
266,25.01117338621924
267,72.4059407487299
268,801.5328980604975
2,1, 7,21, 0, 6, 0.00,60.00,SummerDesignDay
7,24.709999999999999
266,25.01078746712423
267,72.09932008708864
268,801.6973270587248
2,1, 7,21, 0, 7, 0.00,60.00,SummerDesignDay
7,25.160999999999999
266,25.020297639685724
267,68.83141433355498
268,801.9760861097575
2,1, 7,21, 0, 8, 0.00,60.00,SummerDesignDay
7,26.326999999999999
266,25.045154949459623
267,64.14882717771575
268,801.9437742056996
2,1, 7,21, 0, 9, 0.00,60.00,SummerDesignDay
7,27.933
266,25.080499716135575
267,59.969333048618157
268,800.7719168318166
2,1, 7,21, 0,10, 0.00,60.00,SummerDesignDay
7,29.494999999999999
266,25.115324431449908
267,57.016935761238517
268,798.4521655104877
2,1, 7,21, 0,11, 0.00,60.00,SummerDesignDay
7,30.881
266,25.14782752576088
267,55.43148523732205
268,795.3936998544091
2,1, 7,21, 0,12, 0.00,60.00,SummerDesignDay
7,31.926
266,25.173801068972837
267,54.84126858802759
268,792.0457679781159
2,1, 7,21, 0,13, 0.00,60.00,SummerDesignDay
7,32.696
266,25.192188646380303
267,54.612873942861849
268,788.8720452173375
2,1, 7,21, 0,14, 0.00,60.00,SummerDesignDay
7,33.235
266,25.23930500304722
267,54.21952700657991
268,786.0771242199515
2,1, 7,21, 0,15, 0.00,60.00,SummerDesignDay
7,33.4
266,25.403228653679219
267,53.620658365665438
268,783.8842775422461
2,1, 7,21, 0,16, 0.00,60.00,SummerDesignDay
7,33.06999999999999
266,25.55158908259703
267,53.20280018281224
268,782.6076021400052
2,1, 7,21, 0,17, 0.00,60.00,SummerDesignDay
7,32.432
266,25.645733794298385
267,52.904572940409448
268,782.3615588286157
2,1, 7,21, 0,18, 0.00,60.00,SummerDesignDay
7,31.618
266,25.580533175801784
267,52.996226127089858
268,782.9893011454642
2,1, 7,21, 0,19, 0.00,60.00,SummerDesignDay
7,30.463
266,25.24057773671438
267,53.76506529488704
268,784.3233449271742
2,1, 7,21, 0,20, 0.00,60.00,SummerDesignDay
7,29.363
266,25.11951551850424
267,54.84829206353922
268,786.2652360757411
2,1, 7,21, 0,21, 0.00,60.00,SummerDesignDay
7,28.505
266,25.102117528132799
267,56.81712330201778
268,788.5858409174065
2,1, 7,21, 0,22, 0.00,60.00,SummerDesignDay
7,27.712999999999999
266,25.085181982281179
267,58.969807706129397
268,791.0079519821211
2,1, 7,21, 0,23, 0.00,60.00,SummerDesignDay
7,27.030999999999997
266,25.069986851674867
267,61.08546182374573
268,793.3914532795561
2,1, 7,21, 0,24, 0.00,60.00,SummerDesignDay
7,26.414999999999997
266,25.05577886195717
267,63.10311096351646
268,795.5817370001408
1,CHICAGO MIDWAY AP ANN CLG 1% CONDNS DB=>MWB HVAC Sizing Pass 1,  41.78, -87.75,  -6.00, 186.00
2,1, 7,21, 0, 1, 0.00,60.00,SummerDesignDay
7,24.454
266,25.004323417944286
267,66.88311814561509
268,800.53585875779
2,1, 7,21, 0, 2, 0.00,60.00,SummerDesignDay
7,24.035999999999999
266,24.99212619902639
267,68.63119938558939
268,800.7907954085004
2,1, 7,21, 0, 3, 0.00,60.00,SummerDesignDay
7,23.739
266,24.983180533055564
267,70.22527621221319
268,800.5391714855412
2,1, 7,21, 0, 4, 0.00,60.00,SummerDesignDay
7,23.475
266,24.975510365519967
267,71.68441063311448
268,800.0165166279028
2,1, 7,21, 0, 5, 0.00,60.00,SummerDesignDay
7,23.266000000000003
266,24.970299287534748
267,73.01817910621057
268,799.344280294534
2,1, 7,21, 0, 6, 0.00,60.00,SummerDesignDay
7,23.310000000000004
266,24.969994569047438
267,72.87926195347241
268,798.7835866886344
2,1, 7,21, 0, 7, 0.00,60.00,SummerDesignDay
7,23.760999999999997
266,24.982672259608817
267,69.65926608296039
268,798.7923336273793
2,1, 7,21, 0, 8, 0.00,60.00,SummerDesignDay
7,24.927
266,25.01176497666073
267,64.77153430290135
268,799.6546245653784
2,1, 7,21, 0, 9, 0.00,60.00,SummerDesignDay
7,26.532999999999999
266,25.048550954389755
267,60.22164463372532
268,800.3571627941174
2,1, 7,21, 0,10, 0.00,60.00,SummerDesignDay
7,28.095
266,25.084007094518616
267,56.91361607585626
268,799.5631992558631
2,1, 7,21, 0,11, 0.00,60.00,SummerDesignDay
7,29.481
266,25.116601814227154
267,55.068815102775179
268,797.5890989552152
2,1, 7,21, 0,12, 0.00,60.00,SummerDesignDay
7,30.525999999999998
266,25.142414045886104
267,54.31655526056775
268,794.9745240037566
2,1, 7,21, 0,13, 0.00,60.00,SummerDesignDay
7,31.296
266,25.16080382121673
267,53.99698263942496
268,792.2792890209018
2,1, 7,21, 0,14, 0.00,60.00,SummerDesignDay
7,31.835
266,25.172095150556815
267,53.611316196707708
268,789.7908945270948
2,1, 7,21, 0,15, 0.00,60.00,SummerDesignDay
7,32.0
266,25.178398091835449
267,53.05747997680901
268,787.7719793259239
2,1, 7,21, 0,16, 0.00,60.00,SummerDesignDay
7,31.67
266,25.242142561307863
267,52.4349113658086
268,786.5263049370649
2,1, 7,21, 0,17, 0.00,60.00,SummerDesignDay
7,31.032
266,25.27542638011689
267,52.07069535555698
268,786.261694964949
2,1, 7,21, 0,18, 0.00,60.00,SummerDesignDay
7,30.217999999999998
266,25.17247693647533
267,52.141378116910328
268,786.8494585453022
2,1, 7,21, 0,19, 0.00,60.00,SummerDesignDay
7,29.063
266,25.108380494652
267,52.61742720265589
268,788.2024774272825
2,1, 7,21, 0,20, 0.00,60.00,SummerDesignDay
7,27.963
266,25.08766458470228
267,54.31702101225141
268,790.3966969712076
2,1, 7,21, 0,21, 0.00,60.00,SummerDesignDay
7,27.104999999999998
266,25.069233838160515
267,56.6146240961106
268,792.8969586119142
2,1, 7,21, 0,22, 0.00,60.00,SummerDesignDay
7,26.312999999999997
266,25.05115296515627
267,58.89166419039459
268,795.3637414956207
2,1, 7,21, 0,23, 0.00,60.00,SummerDesignDay
7,25.631
266,25.034696809993457
267,61.07661828813329
268,797.6490352383969
2,1, 7,21, 0,24, 0.00,60.00,SummerDesignDay
7,25.015
266,25.018914182676139
267,63.16428370890637
268,799.5439077740703
1,ANNUAL,  41.78, -87.75,  -6.00, 186.00
2,1, 1, 1, 0, 1, 0.00,60.00,Sunday
7,2.75
266,20.168652748077329
267,43.452394283020158
268,769.6555695538554
2,1, 1, 1, 0, 2, 0.00,60.00,Sunday
7,-1.0
266,19.54764180385395
267,37.54330779720879
268,762.6316539381633
2,1, 1, 1, 0, 3, 0.00,60.00,Sunday
7,-1.0
266,19.507296743679257
267,32.02637462716616
268,758.3101223642768
2,1, 1, 1, 0, 4, 0.00,60.00,Sunday
7,-1.0
266,19.455596578760959
267,28.527851189849135
268,755.5213254621527
2,1, 1, 1, 0, 5, 0.00,60.00,Sunday
7,-1.0
266,19.470667195583144
267,26.38318857366948
268,753.8153994852017
2,1, 1, 1, 0, 6, 0.00,60.00,Sunday
7,-1.0
266,19.49841736143567
267,25.103553063201408
268,752.3267012260544
2,1, 1, 1, 0, 7, 0.00,60.00,Sunday
7,-0.375
266,19.52298914876479
267,24.247408754740407
268,751.0746887381237
2,1, 1, 1, 0, 8, 0.00,60.00,Sunday
7,0.0
266,19.537965949726183
267,23.572847336634447
268,750.9772971240446
2,1, 1, 1, 0, 9, 0.00,60.00,Sunday
7,0.625
266,19.554242806376246
267,22.772653872125525
268,750.1551722204105
2,1, 1, 1, 0,10, 0.00,60.00,Sunday
7,2.25
266,19.591125520348205
267,22.435487645426009
268,751.5862742846525
2,1, 1, 1, 0,11, 0.00,60.00,Sunday
7,3.0
266,19.606269737092754
267,22.98819100935925
268,754.0902819526441
2,1, 1, 1, 0,12, 0.00,60.00,Sunday
7,3.625
266,19.616912626162866
267,24.067140351817235
268,755.462880947452
2,1, 1, 1, 0,13, 0.00,60.00,Sunday
7,5.25
266,19.65354913613065
267,25.744524467949558
268,758.744592968698
2,1, 1, 1, 0,14, 0.00,60.00,Sunday
7,6.0
266,19.671152939068443
267,27.667252712557525
268,762.2098566165406
2,1, 1, 1, 0,15, 0.00,60.00,Sunday
7,6.0
266,19.67040945448861
267,29.487846699453944
268,763.4756689905927
2,1, 1, 1, 0,16, 0.00,60.00,Sunday
7,6.625
266,19.686423740791758
267,30.80671766326494
268,765.1629454644663
2,1, 1, 1, 0,17, 0.00,60.00,Sunday
7,7.0
266,19.696070137881166
267,31.91252892010835
268,766.6764361986498
2,1, 1, 1, 0,18, 0.00,60.00,Sunday
7,7.0
266,19.696832677449529
267,33.025881946286428
268,766.7521257422778
2,1, 1, 1, 0,19, 0.00,60.00,Sunday
7,7.625
266,19.712774333438888
267,34.20936366217516
268,765.4830252914197
2,1, 1, 1, 0,20, 0.00,60.00,Sunday
7,8.625
266,19.73794046946286
267,36.41034991883107
268,766.7448682372785
2,1, 1, 1, 0,21, 0.00,60.00,Sunday
7,9.0
266,19.74715135329371
267,39.12426673901483
268,768.9419320729437
2,1, 1, 1, 0,22, 0.00,60.00,Sunday
7,9.0
266,19.746427135924696
267,41.40473085839028
268,772.8891475165867
2,1, 1, 1, 0,23, 0.00,60.00,Sunday
7,9.0
266,19.745936946459147
267,43.57956262370262
268,775.7056976902555
2,1, 1, 1, 0,24, 0.00,60.00,Sunday
7,9.0
266,19.74579188207931
267,45.18058161908204
268,777.0477780657629
2,2, 1, 2, 0, 1, 0.00,60.00,Monday
7,9.0
266,19.74566956121795
267,46.28629167269689
268,777.00040124254
2,2, 1, 2, 0, 2, 0.00,60.00,Monday
7,9.0
266,19.745592377530728
267,47.082901491543058
268,777.1587027352244
2,2, 1, 2, 0, 3, 0.00,60.00,Monday
7,8.375
266,19.730010586694556
267,47.66325683176003
268,776.8634178609077
2,2, 1, 2, 0, 4, 0.00,60.00,Monday
7,7.250000000000001
266,19.701415147706628
267,47.95188810573716
268,776.4609918753023
2,2, 1, 2, 0, 5, 0.00,60.00,Monday
7,6.3
266,19.677295819172277
267,47.697235312144
268,775.4009418614927
2,2, 1, 2, 0, 6, 0.00,60.00,Monday
7,5.6875
266,19.662572989208745
267,47.078521543304407
268,774.0160867156822
2,2, 1, 2, 0, 7, 0.00,60.00,Monday
7,5.1875
266,19.65160202123625
267,45.8596834227376
268,771.9532744655012
2,2, 1, 2, 0, 8, 0.00,60.00,Monday
7,5.25
266,19.653880163675504
267,44.49733986197929
268,768.6105028956386
2,2, 1, 2, 0, 9, 0.00,60.00,Monday
7,5.775
266,19.66562632459011
267,44.19324491750898
268,767.3480612896532
2,2, 1, 2, 0,10, 0.00,60.00,Monday
7,7.25
266,19.699073969485715
267,44.810195194496618
268,769.2433493860183
2,2, 1, 2, 0,11, 0.00,60.00,Monday
7,9.875
266,19.758507263333806
267,46.09539898698084
268,772.3995624747468
2,2, 1, 2, 0,12, 0.00,60.00,Monday
7,11.0
266,19.782071843758584
267,48.03397358685504
268,774.9966770375088
2,2, 1, 2, 0,13, 0.00,60.00,Monday
7,11.625
266,19.796412738787759
267,50.61683811093516
268,778.572961622737
2,2, 1, 2, 0,14, 0.00,60.00,Monday
7,12.0
266,19.806755388401326
267,54.06687196550517
268,779.9577612636265
2,2, 1, 2, 0,15, 0.00,60.00,Monday
7,12.625
266,19.82320508789387
267,56.96771221374153
268,778.8744493844463
2,2, 1, 2, 0,16, 0.00,60.00,Monday
7,13.625
266,19.85011226415289
267,60.0302642346905
268,776.8019070525031
2,2, 1, 2, 0,17, 0.00,60.00,Monday
7,14.625
266,19.878009119593665
267,63.090353308290989
268,774.6674771810741
2,2, 1, 2, 0,18, 0.00,60.00,Monday
7,15.625
266,19.904809119887199
267,65.18200987021044
268,768.8793298623091
2,2, 1, 2, 0,19, 0.00,60.00,Monday
7,16.0
266,19.91474916505754
267,66.49070771787884
268,762.0429793713505
2,2, 1, 2, 0,20, 0.00,60.00,Monday
7,16.0
266,19.91444897468256
267,67.4102329167079
268,758.3260036857096
2,2, 1, 2, 0,21, 0.00,60.00,Monday
7,16.0
266,19.913889849601899
267,68.06732189161923
268,761.2969526755236
2,2, 1, 2, 0,22, 0.00,60.00,Monday
7,15.375
266,19.897062156106466
267,68.41909000789782
268,771.6951836722558
2,2, 1, 2, 0,23, 0.00,60.00,Monday
7,14.375
266,19.870685400046427
267,67.26318500540623
268,777.0634017391097
2,2, 1, 2, 0,24, 0.00,60.00,Monday
7,12.75
266,19.827763713240587
267,64.19048398022422
268,775.1142331863848
2,3, 1, 3, 0, 1, 0.00,60.00,Tuesday
7,11.375
266,19.791251563240004
267,60.56105568275737
268,775.5922477893417
2,3, 1, 3, 0, 2, 0.00,60.00,Tuesday
7,10.375
266,19.76614352344673
267,57.62080693710166
268,773.4115535558951
2,3, 1, 3, 0, 3, 0.00,60.00,Tuesday
7,9.375
266,19.7415125753473
267,54.84659682015859
268,773.3482726802458
2,3, 1, 3, 0, 4, 0.00,60.00,Tuesday
7,8.375
266,19.71726970905563
267,51.94591699077555
268,772.9872601553343
2,3, 1, 3, 0, 5, 0.00,60.00,Tuesday
7,6.75
266,19.677380389156626
267,49.22413460763333
268,772.6576176575313
2,3, 1, 3, 0, 6, 0.00,60.00,Tuesday
7,6.0
266,19.659662715602143
267,46.532279922534957
268,771.1031653727939
2,3, 1, 3, 0, 7, 0.00,60.00,Tuesday
7,6.0
266,19.663739914549333
267,43.84076330591719
268,769.3450012518434
2,3, 1, 3, 0, 8, 0.00,60.00,Tuesday
7,6.0
266,19.666070416990967
267,41.465045984134068
268,769.1005903154402
2,3, 1, 3, 0, 9, 0.00,60.00,Tuesday
7,6.0
266,19.662533283261739
267,39.58428297967545
268,768.7656286145052
2,3, 1, 3, 0,10, 0.00,60.00,Tuesday
7,6.0
266,19.65534791990835
267,37.52229800902368
268,768.633602646838
2,3, 1, 3, 0,11, 0.00,60.00,Tuesday
7,6.0
266,19.65087425089921
267,34.95437491982534
268,767.2687536357256
2,3, 1, 3, 0,12, 0.00,60.00,Tuesday
7,6.0
266,19.65050873541831
267,32.51670398174231
268,766.8068824230121
2,3, 1, 3, 0,13, 0.00,60.00,Tuesday
7,6.0
266,19.652684416284364
267,30.2680118206228
268,765.2044851205891
2,3, 1, 3, 0,14, 0.00,60.00,Tuesday
7,6.0
266,19.65732496049402
267,28.259687526378558
268,764.2721043601607
2,3, 1, 3, 0,15, 0.00,60.00,Tuesday
7,4.75
266,19.628983840470587
267,26.620973667058803
268,764.225663902827
2,3, 1, 3, 0,16, 0.00,60.00,Tuesday
7,4.0
266,19.61294332627055
267,25.46357163720689
268,761.3171481029954
2,3, 1, 3, 0,17, 0.00,60.00,Tuesday
7,2.75
266,19.585842816181765
267,25.223379061032767
268,760.7216151188591
2,3, 1, 3, 0,18, 0.00,60.00,Tuesday
7,1.375
266,19.555060564275725
267,25.528172814787629
268,758.202479294179
2,3, 1, 3, 0,19, 0.00,60.00,Tuesday
7,0.375
266,19.535285144200075
267,26.13936342307956
268,755.4138701841201
2,3, 1, 3, 0,20, 0.00,60.00,Tuesday
7,0.625
266,19.544012989255017
267,26.584618040139547
268,754.5076146733886
2,3, 1, 3, 0,21, 0.00,60.00,Tuesday
7,1.0
266,19.558232529737436
267,26.724044047182678
268,754.3728152518312
2,3, 1, 3, 0,22, 0.00,60.00,Tuesday
7,1.0
266,19.56111121692887
267,26.311570257749815
268,753.1191284728737
2,3, 1, 3, 0,23, 0.00,60.00,Tuesday
7,0.375
266,19.54924704879251
267,25.391897897760175
268,749.679530944039
2,3, 1, 3, 0,24, 0.00,60.00,Tuesday
7,0.0
266,19.541093792349995
267,24.032870842846209
268,746.2604701926987
2,4, 1, 4, 0, 1, 0.00,60.00,Wednesday
7,0.625
266,19.556970491934025
267,23.081020922448979
268,743.6773783468607
2,4, 1, 4, 0, 2, 0.00,60.00,Wednesday
7,0.375
266,19.553451658690777
267,22.911240853237645
268,742.558406781149
2,4, 1, 4, 0, 3, 0.00,60.00,Wednesday
7,0.0
266,19.545037857130667
267,23.156627410842729
268,740.1919762319703
2,4, 1, 4, 0, 4, 0.00,60.00,Wednesday
7,0.0
266,19.545506106075498
267,23.43584657380781
268,735.8516538923198
2,4, 1, 4, 0, 5, 0.00,60.00,Wednesday
7,0.625
266,19.559729489218748
267,23.859461693689139
268,736.1718233327242
2,4, 1, 4, 0, 6, 0.00,60.00,Wednesday
7,1.0
266,19.569885978301288
267,23.988920605403849
268,736.7529441182985
2,4, 1, 4, 0, 7, 0.00,60.00,Wednesday
7,1.0
266,19.57012427435081
267,24.207415733005555
268,736.4788464842488
2,4, 1, 4, 0, 8, 0.00,60.00,Wednesday
7,1.0
266,19.570943139154708
267,24.186615624892949
268,733.7534995836381
2,4, 1, 4, 0, 9, 0.00,60.00,Wednesday
7,1.0
266,19.569639404130745
267,24.29387163606089
268,730.3166650141484
2,4, 1, 4, 0,10, 0.00,60.00,Wednesday
7,1.125
266,19.570132430761313
267,24.006600488139428
268,730.1836305892239
2,4, 1, 4, 0,11, 0.00,60.00,Wednesday
7,1.6374999999999998
266,19.581344020603529
267,23.439357303738768
268,730.5603393314109
2,4, 1, 4, 0,12, 0.00,60.00,Wednesday
7,2.0875
266,19.59022993653306
267,23.162431376683779
268,733.5313760705934
2,4, 1, 4, 0,13, 0.00,60.00,Wednesday
7,2.3249999999999999
266,19.59499727828969
267,23.141441842958828
268,736.4784310097577
2,4, 1, 4, 0,14, 0.00,60.00,Wednesday
7,2.8375
266,19.60613712152866
267,22.988377132504686
268,736.1884135956777
2,4, 1, 4, 0,15, 0.00,60.00,Wednesday
7,1.975
266,19.586659289115148
267,22.99268092629774
268,735.7308062198659
2,4, 1, 4, 0,16, 0.00,60.00,Wednesday
7,0.8625
266,19.560046141680794
267,23.01227983885673
268,730.6380823657892
2,4, 1, 4, 0,17, 0.00,60.00,Wednesday
7,-0.21249999999999998
266,19.534497568651156
267,23.148675871107533
268,729.3735138004746
2,4, 1, 4, 0,18, 0.00,60.00,Wednesday
7,-0.8875
266,19.520086782978006
267,23.55558460716265
268,729.2791490102968
2,4, 1, 4, 0,19, 0.00,60.00,Wednesday
7,-1.0
266,19.520582073195287
267,24.223504487765344
268,727.7299354083262
2,4, 1, 4, 0,20, 0.00,60.00,Wednesday
7,-1.0
266,19.52259271880071
267,24.89278113271005
268,724.2090769969669
2,4, 1, 4, 0,21, 0.00,60.00,Wednesday
7,-1.0
266,19.523829983912063
267,25.02361480797229
268,721.5765291660275
2,4, 1, 4, 0,22, 0.00,60.00,Wednesday
7,-1.0
266,19.524805470002609
267,25.12817126905758
268,723.3561192128634
2,4, 1, 4, 0,23, 0.00,60.00,Wednesday
7,-1.0
266,19.524725279259188
267,25.2135185159174
268,725.8660665567443
2,4, 1, 4, 0,24, 0.00,60.00,Wednesday
7,-1.0
266,19.524846898190867
267,25.277498478857859
268,728.1703431837892
2,5, 1, 5, 0, 1, 0.00,60.00,Thursday
7,-1.0
266,19.525004677782726
267,25.345777924470096
268,730.2197754507681
2,5, 1, 5, 0, 2, 0.00,60.00,Thursday
7,-1.0
266,19.52484883896921
267,25.437155483373627
268,733.4867584495202
2,5, 1, 5, 0, 3, 0.00,60.00,Thursday
7,-1.0
266,19.525036691430019
267,25.51576105828926
268,737.1532905911882
2,5, 1, 5, 0, 4, 0.00,60.00,Thursday
7,-1.625
266,19.511897318405027
267,25.433242784096906
268,738.3580462213772
2,5, 1, 5, 0, 5, 0.00,60.00,Thursday
7,-2.625
266,19.489398892617915
267,24.710073578917144
268,736.7064428267024
2,5, 1, 5, 0, 6, 0.00,60.00,Thursday
7,-3.0
266,19.480609929486329
267,23.464173232171946
268,734.4468431189308
2,5, 1, 5, 0, 7, 0.00,60.00,Thursday
7,-3.625
266,19.467748164351514
267,22.47363181740545
268,734.3742915630105
2,5, 1, 5, 0, 8, 0.00,60.00,Thursday
7,-4.0
266,19.459745979065944
267,21.50670419620954
268,733.6875972774986
2,5, 1, 5, 0, 9, 0.00,60.00,Thursday
7,-4.625
266,19.445520088396227
267,20.76575744060002
268,731.4442929158728
2,5, 1, 5, 0,10, 0.00,60.00,Thursday
7,-5.0
266,19.43841925850615
267,20.188521511922148
268,730.0357571335893
2,5, 1, 5, 0,11, 0.00,60.00,Thursday
7,-4.375
266,19.446822671982259
267,19.526906819595437
268,729.4224615423103
2,5, 1, 5, 0,12, 0.00,60.00,Thursday
7,-4.0
266,19.467601295579116
267,19.131760565193909
268,730.3418825435723
2,5, 1, 5, 0,13, 0.00,60.00,Thursday
7,-4.0
266,19.456936054213416
267,19.03959805539408
268,731.0415053164078
2,5, 1, 5, 0,14, 0.00,60.00,Thursday
7,-3.375
266,19.450318100649825
267,18.78493005704688
268,732.237186025889
2,5, 1, 5, 0,15, 0.00,60.00,Thursday
7,-4.25
266,19.42776580565115
267,18.49167524469524
268,732.2796787009562
2,5, 1, 5, 0,16, 0.00,60.00,Thursday
7,-6.25
266,19.378959840754559
267,17.895946415445829
268,730.4272398259204
2,5, 1, 5, 0,17, 0.00,60.00,Thursday
7,-7.625
266,19.326158023487037
267,16.91013882806765
268,727.3085824890136
2,5, 1, 5, 0,18, 0.00,60.00,Thursday
7,-8.0
266,19.326537982801555
267,15.852384474764614
268,724.4615148807932
2,5, 1, 5, 0,19, 0.00,60.00,Thursday
7,-8.625
266,19.336457947220845
267,14.856608753893026
268,722.1172845890405
2,5, 1, 5, 0,20, 0.00,60.00,Thursday
7,-10.25
266,19.313813685440715
267,13.895440942158738
268,720.302678662051
2,5, 1, 5, 0,21, 0.00,60.00,Thursday
7,-11.625
266,19.292938449767804
267,12.856923257033213
268,718.1275499473868
2,5, 1, 5, 0,22, 0.00,60.00,Thursday
7,-12.625
266,19.277499269925696
267,11.922145739766434
268,715.7376252940945
2,5, 1, 5, 0,23, 0.00,60.00,Thursday
7,-13.625
266,19.26249986741734
267,11.1301462241018
268,714.1513358466208
2,5, 1, 5, 0,24, 0.00,60.00,Thursday
7,-14.625
266,19.247860542342467
267,10.375883666701425
268,712.2126179612137
2,6, 1, 6, 0, 1, 0.00,60.00,Friday
7,-15.625
266,19.23226312527008
267,9.561129221514108
268,708.384681560716
2,6, 1, 6, 0, 2, 0.00,60.00,Friday
7,-16.625
266,19.145958749716614
267,8.955488471639363
268,706.356050274136
2,6, 1, 6, 0, 3, 0.00,60.00,Friday
7,-17.0
266,18.98417857665007
267,8.553524196201604
268,705.0416570845885
2,6, 1, 6, 0, 4, 0.00,60.00,Friday
7,-17.625
266,18.80804418348308
267,8.187848455000239
268,704.5006146241442
2,6, 1, 6, 0, 5, 0.00,60.00,Friday
7,-18.0
266,18.57000886238792
267,7.877177341842291
268,703.7654418039653
2,6, 1, 6, 0, 6, 0.00,60.00,Friday
7,-18.0
266,18.38687596034465
267,7.664828004475014
268,703.1061559770328
2,6, 1, 6, 0, 7, 0.00,60.00,Friday
7,-18.625
266,18.18837372752847
267,7.619099905452061
268,703.0830580464431
2,6, 1, 6, 0, 8, 0.00,60.00,Friday
7,-19.0
266,18.09280564483342
267,7.5566543509466579
268,703.4565761312481
2,6, 1, 6, 0, 9, 0.00,60.00,Friday
7,-18.375
266,18.594930366415363
267,7.2558910941084469
268,702.6958886334228
2,6, 1, 6, 0,10, 0.00,60.00,Friday
7,-17.375
266,19.15859859055065
267,7.059291725643754
268,700.9772634990952
2,6, 1, 6, 0,11, 0.00,60.00,Friday
7,-16.375
266,19.2329521543018
267,7.2023710749963449
268,700.1756121529393
2,6, 1, 6, 0,12, 0.00,60.00,Friday
7,-15.375
266,19.256032307269196
267,7.361201413580338
268,700.4365819271117
2,6, 1, 6, 0,13, 0.00,60.00,Friday
7,-14.375
266,19.28458509826333
267,7.572028524539421
268,699.2108605884043
2,6, 1, 6, 0,14, 0.00,60.00,Friday
7,-13.375
266,19.29411193565842
267,7.834756862028599
268,699.4008929055248
2,6, 1, 6, 0,15, 0.00,60.00,Friday
7,-12.375
266,19.300710830170659
267,8.086730490948885
268,701.2284443776755
2,6, 1, 6, 0,16, 0.00,60.00,Friday
7,-12.0
266,19.28672087717999
267,8.35168013239559
268,701.8884149508347
2,6, 1, 6, 0,17, 0.00,60.00,Friday
7,-12.0
266,19.264650901628138
267,8.526332278079988
268,701.1939714808734
2,6, 1, 6, 0,18, 0.00,60.00,Friday
7,-12.0
266,19.284479972173395
267,8.635737540075186
268,701.8324067170778
2,6, 1, 6, 0,19, 0.00,60.00,Friday
7,-12.0
266,19.295024476264108
267,8.741992235392955
268,703.7908180614841
2,6, 1, 6, 0,20, 0.00,60.00,Friday
7,-12.0
266,19.302637244732965
267,8.868049801038481
268,705.6578496183552
2,6, 1, 6, 0,21, 0.00,60.00,Friday
7,-12.0
266,19.30866366755246
267,9.064499326832048
268,707.2466775574715
2,6, 1, 6, 0,22, 0.00,60.00,Friday
7,-12.0
266,19.312951370303219
267,9.216534326417401
268,708.9208649230199
2,6, 1, 6, 0,23, 0.00,60.00,Friday
7,-12.0
266,19.315215568675514
267,9.326849155292447
268,710.2989970239553
2,6, 1, 6, 0,24, 0.00,60.00,Friday
7,-12.0
266,19.31707090195652
267,9.424835078202263
268,712.3209248119598
2,7, 1, 7, 0, 1, 0.00,60.00,Saturday
7,-12.625
266,19.306004954675019
267,9.492131269699226
268,712.913115466022
2,7, 1, 7, 0, 2, 0.00,60.00,Saturday
7,-13.0
266,19.298405746475319
267,9.540001485165183
268,712.8391006655209
2,7, 1, 7, 0, 3, 0.00,60.00,Saturday
7,-13.0
266,19.299754701825397
267,9.56444937111083
268,712.569296307828
2,7, 1, 7, 0, 4, 0.00,60.00,Saturday
7,-13.0
266,19.301000338277615
267,9.580732731005473
268,712.4057461314216
2,7, 1, 7, 0, 5, 0.00,60.00,Saturday
7,-13.0
266,19.30153624318449
267,9.587831617750059
268,712.100268605323
2,7, 1, 7, 0, 6, 0.00,60.00,Saturday
7,-13.625
266,19.289026264536405
267,9.620465135147845
268,712.8903428710453
2,7, 1, 7, 0, 7, 0.00,60.00,Saturday
7,-14.0
266,19.28130814597539
267,9.597516322055089
268,713.113026649929
2,7, 1, 7, 0, 8, 0.00,60.00,Saturday
7,-13.375
266,19.291146621519105
267,9.456715413380442
268,713.0279792530159
2,7, 1, 7, 0, 9, 0.00,60.00,Saturday
7,-13.0
266,19.287729760626104
267,9.412688532806137
268,714.1462626292355