Program Version,EnergyPlus, Version 9.5.0-de239b2e5f, YMD=2023.01.04 15:11
1,5,Environment Title[],Latitude[deg],Longitude[deg],Time Zone[],Elevation[m]
2,8,Day of Simulation[],Month[],Day of Month[],DST Indicator[1=yes 0=no],Hour[],StartMinute[],EndMinute[],DayType
3,5,Cumulative Day of Simulation[],Month[],Day of Month[],DST Indicator[1=yes 0=no],DayType  ! When Daily Meters Requested
4,2,Cumulative Days of Simulation[],Month[]  ! When Monthly Meters Requested
5,1,Cumulative Days of Simulation[] ! When Run Period Meters Requested
6,1,Calendar Year of Simulation[] ! When Annual Meters Requested
48,9,InteriorLights:Electricity [kWh] !Monthly [Value,Min,Day,Hour,Minute,Max,Day,Hour,Minute]
85,9,InteriorEquipment:Electricity [kWh] !Monthly [Value,Min,Day,Hour,Minute,Max,Day,Hour,Minute]
123,9,Fans:Electricity [kWh] !Monthly [Value,Min,Day,Hour,Minute,Max,Day,Hour,Minute]
508,9,Heating:Electricity [kWh] !Monthly [Value,Min,Day,Hour,Minute,Max,Day,Hour,Minute]
470,9,Cooling:Electricity [kWh] !Monthly [Value,Min,Day,Hour,Minute,Max,Day,Hour,Minute]
End of Data Dictionary
1,CHICAGO MIDWAY AP ANN HTG 99.6% CONDNS DB HVAC Sizing Pass 1,  45.32, -75.67,  -5.00, 114.00
4,1, 1
48,1.2069676297717774E-002,2.4139352595435532E-005,21, 1,15,3.8622964152696852E-004,21,21,15
85,2.4012210991353440,2.5012719782659815E-002,21, 1,15,2.5012719782659815E-002,21, 1,15
123,0.97014352926910763,1.0105661763219852E-002,21, 1,15,1.0105661763219852E-002,21, 1,15
470,0.0000000000000000,0.0000000000000000,21, 1,15,0.0000000000000000,21, 1,15
508,822.20681523954806,8.3744347892847664,21, 1,15,8.6150126024757974,21,24,60
1,CHICAGO MIDWAY AP ANN HTG 99% CONDNS DB HVAC Sizing Pass 1,  45.32, -75.67,  -5.00, 114.00
4,1, 1
48,1.2069676297717774E-002,2.4139352595435532E-005,21, 1,15,3.8622964152696852E-004,21,21,15
85,2.4012210991353440,2.5012719782659815E-002,21, 1,15,2.5012719782659815E-002,21, 1,15
123,0.97014352926910763,1.0105661763219852E-002,21, 1,15,1.0105661763219852E-002,21, 1,15
470,0.0000000000000000,0.0000000000000000,21, 1,15,0.0000000000000000,21, 1,15
508,745.83557562489818,7.5133677225704369,21, 1,15,7.8550650110194917,21,24,60
1,CHICAGO MIDWAY AP ANN CLG .4% CONDNS DB=>MWB HVAC Sizing Pass 1,  45.32, -75.67,  -5.00, 114.00
4,1, 7
48,1.2069676297717774E-002,2.4139352595435532E-005,21, 1,15,3.8622964152696852E-004,21,21,15
85,2.4012210991353440,2.5012719782659815E-002,21, 1,15,2.5012719782659815E-002,21, 1,15
123,0.94059465043135682,9.7559919594084575E-003,21, 2,45,9.8420792163677225E-003,21,17,60
470,36.315791824774664,0.0000000000000000,21, 2,45,0.84922919644040695,21,17,30
508,0.0000000000000000,0.0000000000000000,21, 1,15,0.0000000000000000,21, 1,15
1,CHICAGO MIDWAY AP ANN CLG 1% CONDNS DB=>MWB HVAC Sizing Pass 1,  45.32, -75.67,  -5.00, 114.00
4,1, 7
48,1.2069676297717774E-002,2.4139352595435532E-005,21, 1,15,3.8622964152696852E-004,21,21,15
85,2.4012210991353440,2.5012719782659815E-002,21, 1,15,2.5012719782659815E-002,21, 1,15
123,0.93966697080062933,9.7559919594084575E-003,21, 1,15,9.8142047996519089E-003,21,17,60
470,28.771392223851755,0.0000000000000000,21, 1,15,0.73687543764822605,21,17,45
508,0.0000000000000000,0.0000000000000000,21, 1,15,0.0000000000000000,21, 1,15
1,ANNUAL,  45.32, -75.67,  -5.00, 114.00
4,31, 1
48,0.37415996522926059,2.4139352595435532E-005, 1, 1,15,3.8622964152696852E-004, 1,21,15
85,74.437854073196519,2.5012719782659815E-002, 1, 1,15,2.5012719782659815E-002, 1, 1,15
123,30.070524100947054,9.9043365718980703E-003, 1, 6,60,1.0105661763219852E-002, 1, 1,15
470,0.0000000000000000,0.0000000000000000, 1, 1,15,0.0000000000000000, 1, 1,15
508,18721.493600180314,1.0952041390344873, 1, 6,60,8.6185755741850461, 8,23,30
4,59, 2
48,0.33795093633610485,2.4139352595435532E-005, 1, 1,15,3.8622964152696852E-004, 1,21,15
85,67.234190775790395,2.5012719782659815E-002, 1, 1,15,2.5012719782659815E-002, 1, 1,15
123,27.156958961536461,9.8463914014780256E-003,20,15,45,1.0105661763219852E-002, 1, 1,15
470,0.0000000000000000,0.0000000000000000, 1, 1,15,0.0000000000000000, 1, 1,15
508,14725.001039571251,1.3152371194723385,20,15,45,8.6185755741850461, 2, 5,45
4,90, 3
48,0.37415996522926059,2.4139352595435532E-005, 1, 1,15,3.8622964152696852E-004, 1,21,15
85,74.437854073196519,2.5012719782659815E-002, 1, 1,15,2.5012719782659815E-002, 1, 1,15
123,29.962031263147011,9.8036544071983499E-003, 2,14,45,1.0105661763219852E-002, 1, 1,15
470,0.0000000000000000,0.0000000000000000, 1, 1,15,0.0000000000000000, 1, 1,15
508,10755.271782426209,0.45203760663894615,24,18,30,7.8187554851658199, 1, 1,15
4,120, 4
48,0.36209028893154199,2.4139352595435532E-005, 1, 1,15,3.8622964152696852E-004, 1,21,15
85,72.036632974061135,2.5012719782659815E-002, 1, 1,15,2.5012719782659815E-002, 1, 1,15
123,28.595033744975254,9.7559919594084575E-003,12,16,60,1.0105661763219852E-002, 1, 1,15
470,0.0000000000000000,0.0000000000000000, 1, 1,15,0.0000000000000000, 1, 1,15
508,4946.3469177478810,0.0000000000000000,12,16,60,6.9799448625709539, 4, 7,15
4,151, 5
48,0.37415996522926059,2.4139352595435532E-005, 1, 1,15,3.8622964152696852E-004, 1,21,15
85,74.437854073196519,2.5012719782659815E-002, 1, 1,15,2.5012719782659815E-002, 1, 1,15
123,29.206508916233673,9.7559919594084575E-003, 8,14,45,1.0105661763219852E-002, 2, 2,60
470,8.8819998154086643E-002,0.0000000000000000, 1, 1,15,1.8311889909248702E-002,15,17,45
508,1415.3507310903738,0.0000000000000000, 8,14,45,3.9145824673171550, 6, 5,60
4,181, 6
48,0.36209028893154199,2.4139352595435532E-005, 1, 1,15,3.8622964152696852E-004, 1,21,15
85,72.036632974061135,2.5012719782659815E-002, 1, 1,15,2.5012719782659815E-002, 1, 1,15
123,28.175145980075207,9.7559919594084575E-003, 1, 9,60,9.8141132180753956E-003, 4, 5,30
470,83.005022073519356,0.0000000000000000, 1, 1,15,0.56991150620778264,10,17,60
508,331.01644206007256,0.0000000000000000, 1, 9,60,0.85195845197443520, 4, 5,30
4,212, 7
48,0.37415996522926059,2.4139352595435532E-005, 1, 1,15,3.8622964152696852E-004, 1,21,15
85,74.437854073196519,2.5012719782659815E-002, 1, 1,15,2.5012719782659815E-002, 1, 1,15
123,29.100532766832000,9.7559919594084575E-003, 1, 1,15,9.8773263021919196E-003,20,18,30
470,205.81028426685162,0.0000000000000000, 1, 1,15,0.96195706342577281,20,17,30
508,111.75330054140875,0.0000000000000000, 1, 1,15,0.61580767271360159,27, 5,45
4,243, 8
48,0.37415996522926059,2.4139352595435532E-005, 1, 1,15,3.8622964152696852E-004, 1,21,15
85,74.437854073196519,2.5012719782659815E-002, 1, 1,15,2.5012719782659815E-002, 1, 1,15
123,29.102084696434087,9.7559919594084575E-003, 1, 1,15,9.8036544071983499E-003, 1, 4,30
470,105.95812467946520,0.0000000000000000, 1, 1,15,0.50331313293418578, 1,17,60
508,141.46406622611875,0.0000000000000000, 1, 1,15,0.56614200120412361,17, 6,30
4,273, 9
48,0.36209028893154199,2.4139352595435532E-005, 1, 1,15,3.8622964152696852E-004, 1,21,15
85,72.036632974061135,2.5012719782659815E-002, 1, 1,15,2.5012719782659815E-002, 1, 1,15
123,28.226125863427868,9.7559919594084575E-003, 1, 1,15,1.0105661763219852E-002, 9, 6,15
470,16.479023188706659,0.0000000000000000, 1, 1,15,0.43205190499544510, 1,17,30
508,908.32041446337200,0.0000000000000000, 1, 1,15,2.8074995648755978,20, 6,15
4,304,10
48,0.37415996522926059,2.4139352595435532E-005, 1, 1,15,3.8622964152696852E-004, 1,21,15
85,74.437854073196519,2.5012719782659815E-002, 1, 1,15,2.5012719782659815E-002, 1, 1,15
123,29.462461890297959,9.7559919594084575E-003, 1,16,30,1.0105661763219852E-002, 5, 2,45
470,0.0000000000000000,0.0000000000000000, 1, 1,15,0.0000000000000000, 1, 1,15
508,3854.0307653216855,0.0000000000000000, 1,16,30,5.3232240726726072,23, 7,30
4,334,11
48,0.36209028893154199,2.4139352595435532E-005, 1, 1,15,3.8622964152696852E-004, 1,21,15
85,72.036632974061135,2.5012719782659815E-002, 1, 1,15,2.5012719782659815E-002, 1, 1,15
123,28.904181718486168,9.8036544071983499E-003, 1, 2,30,1.0105661763219852E-002, 2, 5,60
470,0.0000000000000000,0.0000000000000000, 1, 1,15,0.0000000000000000, 1, 1,15
508,7793.0340435148673,0.25834916144904269, 1, 9,60,6.2807379675275739,27, 8,15
4,365,12
48,0.37415996522926059,2.4139352595435532E-005, 1, 1,15,3.8622964152696852E-004, 1,21,15
85,74.437854073196519,2.5012719782659815E-002, 1, 1,15,2.5012719782659815E-002, 1, 1,15
123,30.019675749678729,9.8036544071983499E-003, 5,15,30,1.0105661763219852E-002, 1, 1,15
470,0.0000000000000000,0.0000000000000000, 1, 1,15,0.0000000000000000, 1, 1,15
508,15420.122635208965,0.51719542974864052, 6,14,15,8.6185755741850461,11, 7,45
End of Data
 Number of Records Written=          80
