Program Version,EnergyPlus, Version 9.5.0-de239b2e5f, YMD=2023.01.04 15:11
1,5,Environment Title[],Latitude[deg],Longitude[deg],Time Zone[],Elevation[m]
2,8,Day of Simulation[],Month[],Day of Month[],DST Indicator[1=yes 0=no],Hour[],StartMinute[],EndMinute[],DayType
3,5,Cumulative Day of Simulation[],Month[],Day of Month[],DST Indicator[1=yes 0=no],DayType  ! When Daily Report Variables Requested
4,2,Cumulative Days of Simulation[],Month[]  ! When Monthly Report Variables Requested
5,1,Cumulative Days of Simulation[] ! When Run Period Report Variables Requested
6,1,Calendar Year of Simulation[] ! When Annual Report Variables Requested
7,1,Environment,Site Outdoor Air Drybulb Temperature [F] !Hourly
266,1,ZONE 1,Zone Air Temperature [F] !Hourly
267,1,ZONE 1,Zone Air Relative Humidity [%] !Hourly
268,1,ZONE 1,Zone Air CO2 Concentration [ppm] !Hourly
End of Data Dictionary
1,CHICAGO MIDWAY AP ANN HTG 99.6% CONDNS DB HVAC Sizing Pass 1,  45.32, -75.67,  -5.00, 114.00
2,1, 1,21, 0, 1, 0.00,60.00,WinterDesignDay
7,-1.6599999999999966
266,66.996546332408172
267,6.7896846286062939
268,592.8792186324722
2,1, 1,21, 0, 2, 0.00,60.00,WinterDesignDay
7,-1.6599999999999966
266,66.995693587006343
267,6.790898495337455
268,592.8701808807712
2,1, 1,21, 0, 3, 0.00,60.00,WinterDesignDay
7,-1.6599999999999966
266,66.993472200096363
267,6.791967460004335
268,592.8656109305784
2,1, 1,21, 0, 4, 0.00,60.00,WinterDesignDay
7,-1.6599999999999966
266,66.963297663767989
267,6.799076942606925
268,592.8663637957083
2,1, 1,21, 0, 5, 0.00,60.00,WinterDesignDay
7,-1.6599999999999966
266,66.899947160377323
267,6.8123753017323909
268,592.8824136841945
2,1, 1,21, 0, 6, 0.00,60.00,WinterDesignDay
7,-1.6599999999999966
266,66.843139475983662
267,6.822592365054895
268,592.9119239760224
2,1, 1,21, 0, 7, 0.00,60.00,WinterDesignDay
7,-1.6599999999999966
266,66.792475355079048
267,6.830636507179583
268,592.9473051275264
2,1, 1,21, 0, 8, 0.00,60.00,WinterDesignDay
7,-1.6599999999999966
266,66.747377778830838
267,6.837125054389263
268,592.9842818474963
2,1, 1,21, 0, 9, 0.00,60.00,WinterDesignDay
7,-1.6599999999999966
266,66.706675354985862
267,6.842607043297861
268,593.0205651351832
2,1, 1,21, 0,10, 0.00,60.00,WinterDesignDay
7,-1.6599999999999966
266,66.669932261245805
267,6.847323604741762
268,593.0550677751958
2,1, 1,21, 0,11, 0.00,60.00,WinterDesignDay
7,-1.6599999999999966
266,66.636666164628579
267,6.851458940578978
268,593.0872819372389
2,1, 1,21, 0,12, 0.00,60.00,WinterDesignDay
7,-1.6599999999999966
266,66.606444007729436
267,6.855142804867224
268,593.1170541717628
2,1, 1,21, 0,13, 0.00,60.00,WinterDesignDay
7,-1.6599999999999966
266,66.578896900460336
267,6.858464995680634
268,593.1444239918716
2,1, 1,21, 0,14, 0.00,60.00,WinterDesignDay
7,-1.6599999999999966
266,66.553705350206158
267,6.861489948968701
268,593.1695274909823
2,1, 1,21, 0,15, 0.00,60.00,WinterDesignDay
7,-1.6599999999999966
266,66.530615886471608
267,6.8642601135801499
268,593.1925408341459
2,1, 1,21, 0,16, 0.00,60.00,WinterDesignDay
7,-1.6599999999999966
266,66.509324844501563
267,6.8668270537648639
268,593.2136570228799
2,1, 1,21, 0,17, 0.00,60.00,WinterDesignDay
7,-1.6599999999999966
266,66.489762747269097
267,6.869186206016094
268,593.2330620540265
2,1, 1,21, 0,18, 0.00,60.00,WinterDesignDay
7,-1.6599999999999966
266,66.471640834800283
267,6.8713883063487419
268,593.2509134638823
2,1, 1,21, 0,19, 0.00,60.00,WinterDesignDay
7,-1.6599999999999966
266,66.454823975835552
267,6.873445204119593
268,593.2673838994733
2,1, 1,21, 0,20, 0.00,60.00,WinterDesignDay
7,-1.6599999999999966
266,66.439155540884926
267,6.875376939193403
268,593.2826212082405
2,1, 1,21, 0,21, 0.00,60.00,WinterDesignDay
7,-1.6599999999999966
266,66.424480763172184
267,6.87720356427627
268,593.2967651883928
2,1, 1,21, 0,22, 0.00,60.00,WinterDesignDay
7,-1.6599999999999966
266,66.410631143166341
267,6.878949440812004
268,593.3099518588131
2,1, 1,21, 0,23, 0.00,60.00,WinterDesignDay
7,-1.6599999999999966
266,66.397582036170689
267,6.8806058775557219
268,593.322300146551
2,1, 1,21, 0,24, 0.00,60.00,WinterDesignDay
7,-1.6599999999999966
266,66.385291087617759
267,6.882173284572833
268,593.3338893638933
1,CHICAGO MIDWAY AP ANN HTG 99% CONDNS DB HVAC Sizing Pass 1,  45.32, -75.67,  -5.00, 114.00
2,1, 1,21, 0, 1, 0.00,60.00,WinterDesignDay
7,4.2799999999999976
266,67.066236876877269
267,8.738009767123888
268,597.7247366720942
2,1, 1,21, 0, 2, 0.00,60.00,WinterDesignDay
7,4.2799999999999976
266,67.065589083296615
267,8.73917050920128
268,597.7155810223676
2,1, 1,21, 0, 3, 0.00,60.00,WinterDesignDay
7,4.2799999999999976
266,67.063515512222523
267,8.740336058975905
268,597.7107697314963
2,1, 1,21, 0, 4, 0.00,60.00,WinterDesignDay
7,4.2799999999999976
266,67.061796391109084
267,8.741131994706482
268,597.708472978098
2,1, 1,21, 0, 5, 0.00,60.00,WinterDesignDay
7,4.2799999999999976
266,67.060139823757595
267,8.741748972098819
268,597.7076524729126
2,1, 1,21, 0, 6, 0.00,60.00,WinterDesignDay
7,4.2799999999999976
266,67.058270404071777
267,8.742326650145089
268,597.707754254221
2,1, 1,21, 0, 7, 0.00,60.00,WinterDesignDay
7,4.2799999999999976
266,67.056399547220352
267,8.742833768672077
268,597.7084694735834
2,1, 1,21, 0, 8, 0.00,60.00,WinterDesignDay
7,4.2799999999999976
266,67.055932813952950
267,8.742887957070244
268,597.7093665395171
2,1, 1,21, 0, 9, 0.00,60.00,WinterDesignDay
7,4.2799999999999976
266,67.055460692630220
267,8.742960046596167
268,597.7100640747235
2,1, 1,21, 0,10, 0.00,60.00,WinterDesignDay
7,4.2799999999999976
266,67.054931558568029
267,8.743057401391349
268,597.7106653897648
2,1, 1,21, 0,11, 0.00,60.00,WinterDesignDay
7,4.2799999999999976
266,67.054379074387185
267,8.743165023312909
268,597.7112218471662
2,1, 1,21, 0,12, 0.00,60.00,WinterDesignDay
7,4.2799999999999976
266,67.053813469807039
267,8.743278367897185
268,597.7117572465068
2,1, 1,21, 0,13, 0.00,60.00,WinterDesignDay
7,4.2799999999999976
266,67.053237829753229
267,8.743395411567292
268,597.7122837771946
2,1, 1,21, 0,14, 0.00,60.00,WinterDesignDay
7,4.2799999999999976
266,67.052651861335335
267,8.743515586936593
268,597.7128083673811
2,1, 1,21, 0,15, 0.00,60.00,WinterDesignDay
7,4.2799999999999976
266,67.052053037117929
267,8.743639139836052
268,597.7133357023804
2,1, 1,21, 0,16, 0.00,60.00,WinterDesignDay
7,4.2799999999999976
266,67.051435571360642
267,8.743767492755465
268,597.7138700487437
2,1, 1,21, 0,17, 0.00,60.00,WinterDesignDay
7,4.2799999999999976
266,67.050792887264436
267,8.743902398235932
268,597.714416009512
2,1, 1,21, 0,18, 0.00,60.00,WinterDesignDay
7,4.2799999999999976
266,67.050110455275586
267,8.744047359680274
268,597.7149800661675
2,1, 1,21, 0,19, 0.00,60.00,WinterDesignDay
7,4.2799999999999976
266,67.049363494536408
267,8.744208992627975
268,597.7155724917039
2,1, 1,21, 0,20, 0.00,60.00,WinterDesignDay
7,4.2799999999999976
266,67.048491889014599
267,8.74440333948866
268,597.7162132218978
2,1, 1,21, 0,21, 0.00,60.00,WinterDesignDay
7,4.2799999999999976
266,67.047265030340952
267,8.744694678179819
268,597.7169591449118
2,1, 1,21, 0,22, 0.00,60.00,WinterDesignDay
7,4.2799999999999976
266,67.046022797130973
267,8.744975164647546
268,597.7178491709412
2,1, 1,21, 0,23, 0.00,60.00,WinterDesignDay
7,4.2799999999999976
266,67.046051727544295
267,8.744876981868944
268,597.7186531039721
2,1, 1,21, 0,24, 0.00,60.00,WinterDesignDay
7,4.2799999999999976
266,67.046050785923342
267,8.744822354758476
268,597.7191258056599
1,CHICAGO MIDWAY AP ANN CLG .4% CONDNS DB=>MWB HVAC Sizing Pass 1,  45.32, -75.67,  -5.00, 114.00
2,1, 7,21, 0, 1, 0.00,60.00,SummerDesignDay
7,78.537199999999999
266,77.063690308703798
267,62.77889219339787
268,700.3379564036226
2,1, 7,21, 0, 2, 0.00,60.00,SummerDesignDay
7,77.784800000000004
266,76.980551438261216
267,68.33450621961366
268,702.9828455846266
2,1, 7,21, 0, 3, 0.00,60.00,SummerDesignDay
7,77.250199999999992
266,76.340332744407078
267,74.32293963416118
268,704.6362339579908
2,1, 7,21, 0, 4, 0.00,60.00,SummerDesignDay
7,76.774999999999991
266,75.621158626541842
267,78.7055370221038
268,705.2828059213778
2,1, 7,21, 0, 5, 0.00,60.00,SummerDesignDay
7,76.398799999999994
266,74.987325946729499
267,81.8089066064583
268,705.3757344542122
2,1, 7,21, 0, 6, 0.00,60.00,SummerDesignDay
7,76.477999999999994
266,74.916257970841912
267,82.75301257263235
268,705.0666919054343
2,1, 7,21, 0, 7, 0.00,60.00,SummerDesignDay
7,77.289800000000000
266,75.784217521351138
267,80.82909890490892
268,704.5467261190662
2,1, 7,21, 0, 8, 0.00,60.00,SummerDesignDay
7,79.388599999999997
266,77.004316258590208
267,76.79738272246351
268,703.7390996804502
2,1, 7,21, 0, 9, 0.00,60.00,SummerDesignDay
7,82.279400000000010
266,77.136762031706624
267,69.13913479065228
268,701.4411927250578
2,1, 7,21, 0,10, 0.00,60.00,SummerDesignDay
7,85.090999999999994
266,77.184804239939297
267,60.307373796994408
268,697.4248505791778
2,1, 7,21, 0,11, 0.00,60.00,SummerDesignDay
7,87.585800000000006
266,77.229046934874788
267,54.58923957096904
268,692.7278842886556
2,1, 7,21, 0,12, 0.00,60.00,SummerDesignDay
7,89.466800000000006
266,77.263816722606975
267,51.571906087442787
268,688.0490539444118
2,1, 7,21, 0,13, 0.00,60.00,SummerDesignDay
7,90.852800000000002
266,77.291045494739308
267,50.065744836491358
268,683.8979600445513
2,1, 7,21, 0,14, 0.00,60.00,SummerDesignDay
7,91.823000000000008
266,77.313882948199137
267,49.18285448594236
268,680.3926487061378
2,1, 7,21, 0,15, 0.00,60.00,SummerDesignDay
7,92.120000000000005
266,77.324202238308374
267,48.38864546312882
268,677.7370543686909
2,1, 7,21, 0,16, 0.00,60.00,SummerDesignDay
7,91.525999999999982
266,77.306739335060570
267,47.581654693319908
268,676.188023628035
2,1, 7,21, 0,17, 0.00,60.00,SummerDesignDay
7,90.377600000000001
266,77.281232061362772
267,46.88027829050664
268,675.8403474068686
2,1, 7,21, 0,18, 0.00,60.00,SummerDesignDay
7,88.912399999999991
266,77.251732116236752
267,46.43832840488108
268,676.5423219399654
2,1, 7,21, 0,19, 0.00,60.00,SummerDesignDay
7,86.833400000000012
266,77.213064355162686
267,46.35254446444386
268,678.3522230364666
2,1, 7,21, 0,20, 0.00,60.00,SummerDesignDay
7,84.853399999999993
266,77.177204495316886
267,46.92223832035963
268,681.3589023856454
2,1, 7,21, 0,21, 0.00,60.00,SummerDesignDay
7,83.308999999999997
266,77.151718684090724
267,48.49960341763216
268,685.0625273400392
2,1, 7,21, 0,22, 0.00,60.00,SummerDesignDay
7,81.883399999999995
266,77.128593906826069
267,50.916577008750959
268,689.0974835117609
2,1, 7,21, 0,23, 0.00,60.00,SummerDesignDay
7,80.655799999999999
266,77.105683617633446
267,53.893191333532289
268,693.172940208839
2,1, 7,21, 0,24, 0.00,60.00,SummerDesignDay
7,79.546999999999997
266,77.082916525879725
267,57.453369634438349
268,696.9387795120117
1,CHICAGO MIDWAY AP ANN CLG 1% CONDNS DB=>MWB HVAC Sizing Pass 1,  45.32, -75.67,  -5.00, 114.00
2,1, 7,21, 0, 1, 0.00,60.00,SummerDesignDay
7,76.017200000000003
266,76.714152106943445
267,66.86249474887043
268,704.7663009254801
2,1, 7,21, 0, 2, 0.00,60.00,SummerDesignDay
7,75.264799999999994
266,75.753702998409210
267,73.13510680042461
268,705.3137667513692
2,1, 7,21, 0, 3, 0.00,60.00,SummerDesignDay
7,74.730199999999996
266,74.864964199557662
267,77.61560147954397
268,705.9171352636357
2,1, 7,21, 0, 4, 0.00,60.00,SummerDesignDay
7,74.254999999999995
266,74.050238120793466
267,81.00694296822569
268,706.5555544517879
2,1, 7,21, 0, 5, 0.00,60.00,SummerDesignDay
7,73.878800000000012
266,73.340392776396854
267,83.60306726229314
268,706.9466572645346
2,1, 7,21, 0, 6, 0.00,60.00,SummerDesignDay
7,73.957999999999998
266,73.219158325085061
267,84.2452469640689
268,706.898102599585
2,1, 7,21, 0, 7, 0.00,60.00,SummerDesignDay
7,74.769800000000004
266,74.035267389344511
267,82.15256794031494
268,706.5471166089797
2,1, 7,21, 0, 8, 0.00,60.00,SummerDesignDay
7,76.868600000000001
266,75.708602136645268
267,77.89300460503012
268,705.8388284685666
2,1, 7,21, 0, 9, 0.00,60.00,SummerDesignDay
7,79.759399999999999
266,77.068057755826999
267,72.98467698732773
268,704.3548368015622
2,1, 7,21, 0,10, 0.00,60.00,SummerDesignDay
7,82.570999999999998
266,77.140437825352478
267,65.27436828892913
268,701.4854679925779
2,1, 7,21, 0,11, 0.00,60.00,SummerDesignDay
7,85.065799999999996
266,77.182574895728891
267,57.65952579806598
268,697.3893554562166
2,1, 7,21, 0,12, 0.00,60.00,SummerDesignDay
7,86.946799999999996
266,77.216296228864849
267,53.08822419893382
268,693.0052124721972
2,1, 7,21, 0,13, 0.00,60.00,SummerDesignDay
7,88.332799999999992
266,77.242054111874680
267,50.73649228411953
268,688.9937675014296
2,1, 7,21, 0,14, 0.00,60.00,SummerDesignDay
7,89.302999999999997
266,77.260872932792068
267,49.40444384578404
268,685.5502949388216
2,1, 7,21, 0,15, 0.00,60.00,SummerDesignDay
7,89.599999999999994
266,77.267588768423849
267,48.31129040373582
268,682.9432369447886
2,1, 7,21, 0,16, 0.00,60.00,SummerDesignDay
7,89.006000000000000
266,77.261618412376237
267,47.310139876708
268,681.4850903957536
2,1, 7,21, 0,17, 0.00,60.00,SummerDesignDay
7,87.857599999999991
266,77.238103880753101
267,46.53337302098909
268,681.298867072635
2,1, 7,21, 0,18, 0.00,60.00,SummerDesignDay
7,86.392399999999995
266,77.207366743922023
267,46.05878927001105
268,682.2151759902538
2,1, 7,21, 0,19, 0.00,60.00,SummerDesignDay
7,84.313400000000001
266,77.167513347712699
267,45.9816251731019
268,684.293400308824
2,1, 7,21, 0,20, 0.00,60.00,SummerDesignDay
7,82.333400000000012
266,77.130503815761926
267,46.62321960299078
268,687.6100150843139
2,1, 7,21, 0,21, 0.00,60.00,SummerDesignDay
7,80.788999999999987
266,77.103606096740947
267,48.373307893919918
268,691.5819906447235
2,1, 7,21, 0,22, 0.00,60.00,SummerDesignDay
7,79.363399999999984
266,77.074459225680130
267,51.15786366765616
268,695.7610327556216
2,1, 7,21, 0,23, 0.00,60.00,SummerDesignDay
7,78.135800000000003
266,77.050412915487016
267,54.8485197468835
268,699.7637849366782
2,1, 7,21, 0,24, 0.00,60.00,SummerDesignDay
7,77.027000000000001
266,77.028396975908208
267,59.53057135982408
268,703.0477432324154
1,ANNUAL,  45.32, -75.67,  -5.00, 114.00
2,1, 1, 1, 0, 1, 0.00,60.00,Sunday
7,26.329999999999998
266,67.335892385995692
267,11.343962931064981
268,610.8022706051989
2,1, 1, 1, 0, 2, 0.00,60.00,Sunday
7,36.590000000000003
266,67.501610224164466
267,15.195435274314129
268,617.4350434182142
2,1, 1, 1, 0, 3, 0.00,60.00,Sunday
7,41.494999999999997
266,67.578049902453685
267,19.320136481291724
268,625.6760779793258
2,1, 1, 1, 0, 4, 0.00,60.00,Sunday
7,43.767499999999998
266,67.613939604364447
267,22.763196814692173
268,632.7131059385598
2,1, 1, 1, 0, 5, 0.00,60.00,Sunday
7,44.127499999999998
266,67.616060836388755
267,25.103523427269438
268,636.6643125183922
2,1, 1, 1, 0, 6, 0.00,60.00,Sunday
7,43.835000000000001
266,67.607021972012788
267,26.059080556303156
268,640.3473825915773
2,1, 1, 1, 0, 7, 0.00,60.00,Sunday
7,40.100000000000001
266,67.549780276075012
267,26.00129926354144
268,641.0023006382587
2,1, 1, 1, 0, 8, 0.00,60.00,Sunday
7,36.702500000000001
266,67.487068754505017
267,25.496319672932935
268,640.7812500174149
2,1, 1, 1, 0, 9, 0.00,60.00,Sunday
7,36.634999999999998
266,67.479237792825799
267,25.099983542196406
268,640.202492358837
2,1, 1, 1, 0,10, 0.00,60.00,Sunday
7,37.602499999999999
266,67.491074311790044
267,24.943322631840695
268,638.8152832050508
2,1, 1, 1, 0,11, 0.00,60.00,Sunday
7,38.615000000000002
266,67.504737735607250
267,24.74316466591785
268,637.3865575833232
2,1, 1, 1, 0,12, 0.00,60.00,Sunday
7,39.019999999999996
266,67.513380634222543
267,24.23040930518606
268,634.4404199330699
2,1, 1, 1, 0,13, 0.00,60.00,Sunday
7,39.019999999999996
266,67.516834131376015
267,23.36055044972209
268,628.9235154817174
2,1, 1, 1, 0,14, 0.00,60.00,Sunday
7,37.107500000000002
266,67.492778969083275
267,22.15791491118971
268,619.8814202982979
2,1, 1, 1, 0,15, 0.00,60.00,Sunday
7,34.159999999999997
266,67.442870000067160
267,20.946453591318574
268,613.863107905105
2,1, 1, 1, 0,16, 0.00,60.00,Sunday
7,32.405000000000001
266,67.413267580089155
267,19.47045417879247
268,611.9770296855215
2,1, 1, 1, 0,17, 0.00,60.00,Sunday
7,30.762499999999999
266,67.389236713810476
267,17.886033020749296
268,610.366005004282
2,1, 1, 1, 0,18, 0.00,60.00,Sunday
7,30.020000000000000
266,67.376579102500642
267,16.713702249999135
268,612.8198563704652
2,1, 1, 1, 0,19, 0.00,60.00,Sunday
7,29.344999999999999
266,67.371685791467996
267,15.956194277345896
268,615.0415062324908
2,1, 1, 1, 0,20, 0.00,60.00,Sunday
7,27.702500000000001
266,67.350432267519494
267,15.387899722979669
268,616.7318107934888
2,1, 1, 1, 0,21, 0.00,60.00,Sunday
7,25.160000000000000
266,67.317674162641822
267,14.409751525782017
268,615.9492757495152
2,1, 1, 1, 0,22, 0.00,60.00,Sunday
7,22.167500000000000
266,67.280001204237962
267,13.040123097526767
268,612.6113781178631
2,1, 1, 1, 0,23, 0.00,60.00,Sunday
7,19.107500000000002
266,67.239041199388666
267,11.7359282841471
268,610.8438270289944
2,1, 1, 1, 0,24, 0.00,60.00,Sunday
7,16.722500000000004
266,67.206903406370941
267,10.807935470713606
268,609.6018583241348
2,2, 1, 2, 0, 1, 0.00,60.00,Monday
7,15.980000000000000
266,67.197060886976374
267,10.181876023551763
268,608.8855056995319
2,2, 1, 2, 0, 2, 0.00,60.00,Monday
7,15.417500000000000
266,67.192372158262245
267,9.638430953086747
268,609.4931655984372
2,2, 1, 2, 0, 3, 0.00,60.00,Monday
7,14.404999999999998
266,67.180569697576061
267,9.298916570344094
268,610.2513883190732
2,2, 1, 2, 0, 4, 0.00,60.00,Monday
7,14.000000000000000
266,67.175908244804106
267,9.122999020289607
268,609.9483486432463
2,2, 1, 2, 0, 5, 0.00,60.00,Monday
7,13.324999999999999
266,67.168090803010131
267,9.00890392405677
268,609.7663823844337
2,2, 1, 2, 0, 6, 0.00,60.00,Monday
7,12.920000000000002
266,67.161188366541410
267,8.929231026736842
268,609.7693534224311
2,2, 1, 2, 0, 7, 0.00,60.00,Monday
7,12.920000000000002
266,67.161149916560319
267,8.872891773769318
268,609.7228378539046
2,2, 1, 2, 0, 8, 0.00,60.00,Monday
7,12.920000000000002
266,67.161067265307551
267,8.87809214016559
268,609.5982480006537
2,2, 1, 2, 0, 9, 0.00,60.00,Monday
7,13.594999999999999
266,67.169420867038156
267,8.967460365564584
268,609.1975632345518
2,2, 1, 2, 0,10, 0.00,60.00,Monday
7,14.675000000000001
266,67.184362722878319
267,9.031736572417018
268,608.4471543010482
2,2, 1, 2, 0,11, 0.00,60.00,Monday
7,15.642499999999998
266,67.197963126345797
267,9.041285290449953
268,606.8525299009956
2,2, 1, 2, 0,12, 0.00,60.00,Monday
7,16.654999999999994
266,67.210442466183110
267,9.070410837693489
268,604.182121080949
2,2, 1, 2, 0,13, 0.00,60.00,Monday
7,17.059999999999999
266,67.214763053492675
267,9.216407170355576
268,602.05024613117
2,2, 1, 2, 0,14, 0.00,60.00,Monday
7,17.059999999999999
266,67.210475743603183
267,9.417515249418859
268,601.0966785558109
2,2, 1, 2, 0,15, 0.00,60.00,Monday
7,17.059999999999999
266,67.208397799857352
267,9.579804670948704
268,601.8839592386107
2,2, 1, 2, 0,16, 0.00,60.00,Monday
7,16.384999999999998
266,67.200575355780501
267,9.680232454101109
268,601.9271471517355
2,2, 1, 2, 0,17, 0.00,60.00,Monday
7,15.980000000000000
266,67.196358958451526
267,9.714332457084094
268,600.971323276005
2,2, 1, 2, 0,18, 0.00,60.00,Monday
7,15.980000000000000
266,67.201056251874945
267,9.738540892444926
268,598.2900937580841
2,2, 1, 2, 0,19, 0.00,60.00,Monday
7,15.980000000000000
266,67.202127571755597
267,9.892045442258647
268,595.931009584734
2,2, 1, 2, 0,20, 0.00,60.00,Monday
7,17.217500000000001
266,67.216694506457458
267,10.287146097669176
268,595.8443077927627
2,2, 1, 2, 0,21, 0.00,60.00,Monday
7,18.634999999999998
266,67.239880199120392
267,10.937058203255047
268,596.1987487690333
2,2, 1, 2, 0,22, 0.00,60.00,Monday
7,19.602499999999999
266,67.257751189203077
267,11.615224556568695
268,596.1270361597904
2,2, 1, 2, 0,23, 0.00,60.00,Monday
7,20.615000000000002
266,67.272829412126896
267,12.485741736591802
268,597.6283152502688
2,2, 1, 2, 0,24, 0.00,60.00,Monday
7,21.582500000000000
266,67.284617043361749
267,13.486704676769289
268,601.083991721726
2,3, 1, 3, 0, 1, 0.00,60.00,Tuesday
7,22.594999999999999
266,67.297558476206660
267,14.486816541536119
268,604.7746450830354
2,3, 1, 3, 0, 2, 0.00,60.00,Tuesday
7,24.237500000000001
266,67.315763585943472
267,15.453621160849794
268,607.1477609428046
2,3, 1, 3, 0, 3, 0.00,60.00,Tuesday
7,24.980000000000000
266,67.325676561849008
267,16.430602243362566
268,609.7821052678087
2,3, 1, 3, 0, 4, 0.00,60.00,Tuesday
7,25.655000000000001
266,67.331377187986490
267,17.218243449340414
268,613.0935059193803
2,3, 1, 3, 0, 5, 0.00,60.00,Tuesday
7,26.060000000000002
266,67.336585836093946
267,17.97155970060215
268,615.7813343996356
2,3, 1, 3, 0, 6, 0.00,60.00,Tuesday
7,26.622500000000002
266,67.340794957138513
267,18.593219775004088
268,618.1446355645719
2,3, 1, 3, 0, 7, 0.00,60.00,Tuesday
7,26.960000000000001
266,67.344955437267629
267,19.167588434201414
268,620.8055297299354
2,3, 1, 3, 0, 8, 0.00,60.00,Tuesday
7,28.872499999999999
266,67.370403880508618
267,19.804491883329886
268,622.6667118372184
2,3, 1, 3, 0, 9, 0.00,60.00,Tuesday
7,33.170000000000002
266,67.434088743686772
267,21.2039363306944
268,625.2546983865346
2,3, 1, 3, 0,10, 0.00,60.00,Tuesday
7,36.297499999999999
266,67.486474280044519
267,23.319429475223275
268,627.759474139355
2,3, 1, 3, 0,11, 0.00,60.00,Tuesday
7,37.602499999999999
266,67.508527113470265
267,24.833192923639176
268,626.0142363723155
2,3, 1, 3, 0,12, 0.00,60.00,Tuesday
7,37.377499999999998
266,67.505584841376674
267,24.464902202608195
268,621.1644230488397
2,3, 1, 3, 0,13, 0.00,60.00,Tuesday
7,36.365000000000002
266,67.483476555935368
267,23.05974953077041
268,617.9898184365708
2,3, 1, 3, 0,14, 0.00,60.00,Tuesday
7,35.960000000000001
266,67.469436061655188
267,22.086218145553397
268,618.5329093959607
2,3, 1, 3, 0,15, 0.00,60.00,Tuesday
7,35.397500000000001
266,67.458356629707438
267,21.00208104692249
268,618.588852870628
2,3, 1, 3, 0,16, 0.00,60.00,Tuesday
7,35.060000000000002
266,67.449648801098490
267,20.042397391301195
268,616.9138928930198
2,3, 1, 3, 0,17, 0.00,60.00,Tuesday
7,33.147500000000001
266,67.420794325427508
267,19.441868192355359
268,615.3178299268025
2,3, 1, 3, 0,18, 0.00,60.00,Tuesday
7,32.000000000000000
266,67.399576680011847
267,19.11724399679639
268,615.0403826576271
2,3, 1, 3, 0,19, 0.00,60.00,Tuesday
7,32.000000000000000
266,67.406172246762225
267,18.656235728634429
268,612.8703684904981
2,3, 1, 3, 0,20, 0.00,60.00,Tuesday
7,30.762499999999999
266,67.399874488339378
267,17.68041415743295
268,605.9443878743487
2,3, 1, 3, 0,21, 0.00,60.00,Tuesday
7,26.870000000000001
266,67.351755274138981
267,15.849640100112355
268,594.8399947369667
2,3, 1, 3, 0,22, 0.00,60.00,Tuesday
7,22.505000000000003
266,67.290481308650556
267,13.856699090092083
268,586.8032100152025
2,3, 1, 3, 0,23, 0.00,60.00,Tuesday
7,19.782499999999999
266,67.246925550209966
267,12.261947497964036
268,584.9783079177946
2,3, 1, 3, 0,24, 0.00,60.00,Tuesday
7,17.802500000000002
266,67.219041481114829
267,11.054670000409296
268,588.3956632956442
2,4, 1, 4, 0, 1, 0.00,60.00,Wednesday
7,16.384999999999998
266,67.199558866258414
267,10.039246399219206
268,591.8126554547512
2,4, 1, 4, 0, 2, 0.00,60.00,Wednesday
7,15.417500000000000
266,67.188689720945050
267,9.405309003672289
268,595.837494002802
2,4, 1, 4, 0, 3, 0.00,60.00,Wednesday
7,15.079999999999998
266,67.186701791938674
267,8.835332980535318
268,598.228803815457
2,4, 1, 4, 0, 4, 0.00,60.00,Wednesday
7,14.404999999999998
266,67.178792164450414
267,8.40528224802399
268,601.1375039142956
2,4, 1, 4, 0, 5, 0.00,60.00,Wednesday
7,13.324999999999999
266,67.164991682410800
267,8.238170182602886
268,603.6563382315763
2,4, 1, 4, 0, 6, 0.00,60.00,Wednesday
7,12.920000000000002
266,67.160623687467080
267,8.170548955587704
268,604.5944541084335
2,4, 1, 4, 0, 7, 0.00,60.00,Wednesday
7,12.357500000000002
266,67.155017767801411
267,8.133446058127483
268,604.9693003284225
2,4, 1, 4, 0, 8, 0.00,60.00,Wednesday
7,12.020000000000000
266,67.149681153327762
267,8.126985603145818
268,605.5649890625306
2,4, 1, 4, 0, 9, 0.00,60.00,Wednesday
7,12.582500000000000
266,67.156029644159872
267,8.12096926949431
268,606.3821236905233
2,4, 1, 4, 0,10, 0.00,60.00,Wednesday
7,13.594999999999999
266,67.166297846396077
267,8.10336467530863
268,606.9444807923602
2,4, 1, 4, 0,11, 0.00,60.00,Wednesday
7,14.675000000000001
266,67.173840154579267
267,8.160798896010152
268,607.4999052477382
2,4, 1, 4, 0,12, 0.00,60.00,Wednesday
7,16.317499999999995
266,67.187729303927540
267,8.399906646267214
268,608.9176078235148
2,4, 1, 4, 0,13, 0.00,60.00,Wednesday
7,18.297499999999999
266,67.209760884415630
267,8.824452781580824
268,611.0367169698928
2,4, 1, 4, 0,14, 0.00,60.00,Wednesday
7,20.277500000000003
266,67.235203437383944
267,9.492685549333798
268,613.3780991583436
2,4, 1, 4, 0,15, 0.00,60.00,Wednesday
7,22.257500000000000
266,67.261451150738765
267,10.165565478716168
268,615.7333164361924
2,4, 1, 4, 0,16, 0.00,60.00,Wednesday
7,24.237500000000001
266,67.284167032618811
267,10.99848617547623
268,617.6867550215297
2,4, 1, 4, 0,17, 0.00,60.00,Wednesday
7,24.980000000000000
266,67.295564667518292
267,11.913673005276694
268,619.5988135975603
2,4, 1, 4, 0,18, 0.00,60.00,Wednesday
7,23.742500000000000
266,67.278326484758850
267,12.646189371547964
268,621.1883625950161
2,4, 1, 4, 0,19, 0.00,60.00,Wednesday
7,23.000000000000000
266,67.269166161241429
267,13.250999567422614
268,621.7023835777177
2,4, 1, 4, 0,20, 0.00,60.00,Wednesday
7,25.475000000000001
266,67.300671369252925
267,13.976023993415808
268,622.5950167835537
2,4, 1, 4, 0,21, 0.00,60.00,Wednesday
7,27.634999999999998
266,67.339770348128212
267,15.223717588236184
268,624.1871069688136
2,4, 1, 4, 0,22, 0.00,60.00,Wednesday
7,27.365000000000002
266,67.338602067116753
267,16.255904282508614
268,625.4690713301402
2,4, 1, 4, 0,23, 0.00,60.00,Wednesday
7,26.960000000000001
266,67.330485870026024
267,16.813519703364038
268,626.2624194187932
2,4, 1, 4, 0,24, 0.00,60.00,Wednesday
7,26.960000000000001
266,67.330975320597105
267,17.03096029045162
268,626.7501841143516
2,5, 1, 5, 0, 1, 0.00,60.00,Thursday
7,28.197500000000002
266,67.348949575878450
267,17.228459277644889
268,627.1619710801685
2,5, 1, 5, 0, 2, 0.00,60.00,Thursday
7,29.615000000000002
266,67.372786610776416
267,17.526354013532158
268,627.9639133714762
2,5, 1, 5, 0, 3, 0.00,60.00,Thursday
7,29.344999999999999
266,67.370422223272072
267,17.83852133899587
268,628.679261358242
2,5, 1, 5, 0, 4, 0.00,60.00,Thursday
7,28.940000000000001
266,67.360686916371691
267,18.165632124846515
268,628.6968248739574
2,5, 1, 5, 0, 5, 0.00,60.00,Thursday
7,28.940000000000001
266,67.359071946937689
267,18.344342804583108
268,628.9352940921019
2,5, 1, 5, 0, 6, 0.00,60.00,Thursday
7,28.940000000000001
266,67.358013518362199
267,18.348242823926385
268,629.1596524217802
2,5, 1, 5, 0, 7, 0.00,60.00,Thursday
7,28.377499999999998
266,67.349700897889392
267,18.344700958473277
268,629.385824686816
2,5, 1, 5, 0, 8, 0.00,60.00,Thursday
7,26.802499999999998
266,67.326416154624013
267,18.272734944641515
268,628.9063518426864
2,5, 1, 5, 0, 9, 0.00,60.00,Thursday
7,26.622500000000002
266,67.319419673041040
267,18.13912232942154
268,628.3366006363981
2,5, 1, 5, 0,10, 0.00,60.00,Thursday
7,28.197500000000002
266,67.340413372064731
267,18.243028638347057
268,628.6945569852887
2,5, 1, 5, 0,11, 0.00,60.00,Thursday
7,30.177499999999998
266,67.368524247990507
267,18.462235858490457
268,629.8315164367178
2,5, 1, 5, 0,12, 0.00,60.00,Thursday
7,32.270000000000003
266,67.398120446362796
267,18.77741331100585
268,631.7084473397827
2,5, 1, 5, 0,13, 0.00,60.00,Thursday
7,33.642499999999998
266,67.418491709461847
267,19.301948279403278
268,634.2426004138688
2,5, 1, 5, 0,14, 0.00,60.00,Thursday
7,34.655000000000001
266,67.431538277503932
267,19.736399553419436
268,636.5911942576556
2,5, 1, 5, 0,15, 0.00,60.00,Thursday
7,34.384999999999998
266,67.427414769138579
267,20.134558301394205
268,638.4836597645464
2,5, 1, 5, 0,16, 0.00,60.00,Thursday
7,33.417499999999997
266,67.409621773819680
267,20.57068444438565
268,639.2832514657741
2,5, 1, 5, 0,17, 0.00,60.00,Thursday
7,33.079999999999998
266,67.403414938969860
267,20.86755684131699
268,639.0966004646643
2,5, 1, 5, 0,18, 0.00,60.00,Thursday
7,32.405000000000001
266,67.395611484741153
267,21.020249272479015
268,638.4824584078019
2,5, 1, 5, 0,19, 0.00,60.00,Thursday
7,30.762499999999999
266,67.373240169279811
267,20.897710540432028
268,636.785432396845
2,5, 1, 5, 0,20, 0.00,60.00,Thursday
7,27.545000000000002
266,67.328130447688238
267,20.322093411764234
268,631.2770944557597
2,5, 1, 5, 0,21, 0.00,60.00,Thursday
7,24.822499999999998
266,67.284672016221194
267,19.178062475746257
268,625.522713479812
2,5, 1, 5, 0,22, 0.00,60.00,Thursday
7,23.405000000000001
266,67.263380124000662
267,17.879349301447744
268,622.4333833200363
2,5, 1, 5, 0,23, 0.00,60.00,Thursday
7,22.324999999999999
266,67.254194812572649
267,16.823224391541218
268,621.4207876722262
2,5, 1, 5, 0,24, 0.00,60.00,Thursday
7,21.357500000000002
266,67.244062169680987
267,15.902536416527126
268,619.7913815144366
2,6, 1, 6, 0, 1, 0.00,60.00,Friday
7,20.344999999999999
266,67.232677304103163
267,15.127961565953019
268,618.3697219887121
2,6, 1, 6, 0, 2, 0.00,60.00,Friday
7,18.702500000000001
266,67.213445530381875
267,14.52484516567814
268,617.017201273517
2,6, 1, 6, 0, 3, 0.00,60.00,Friday
7,17.960000000000001
266,67.204949548886901
267,13.912242416174868
268,615.115074443933
2,6, 1, 6, 0, 4, 0.00,60.00,Friday
7,17.397500000000001
266,67.201658318016115
267,13.311836680065984
268,613.0468026115584
2,6, 1, 6, 0, 5, 0.00,60.00,Friday
7,17.059999999999999
266,67.198844340082559
267,12.818655445988846
268,610.7724715927775
2,6, 1, 6, 0, 6, 0.00,60.00,Friday
7,17.622499999999999
266,67.208216515323258
267,12.633196749726734
268,608.7725668513517
2,6, 1, 6, 0, 7, 0.00,60.00,Friday
7,17.960000000000001
266,67.212699130855157
267,12.687723722503005
268,608.2851784858642
2,6, 1, 6, 0, 8, 0.00,60.00,Friday
7,17.960000000000001
266,67.210786910528100
267,12.868499722842
268,609.0539334829426
2,6, 1, 6, 0, 9, 0.00,60.00,Friday
7,17.960000000000001