Program Version,EnergyPlus, Version 9.5.0-de239b2e5f, YMD=2023.10.17 10:28
1,5,Environment Title[],Latitude[deg],Longitude[deg],Time Zone[],Elevation[m]
2,8,Day of Simulation[],Month[],Day of Month[],DST Indicator[1=yes 0=no],Hour[],StartMinute[],EndMinute[],DayType
3,5,Cumulative Day of Simulation[],Month[],Day of Month[],DST Indicator[1=yes 0=no],DayType  ! When Daily Meters Requested
4,2,Cumulative Days of Simulation[],Month[]  ! When Monthly Meters Requested
5,1,Cumulative Days of Simulation[] ! When Run Period Meters Requested
6,1,Calendar Year of Simulation[] ! When Annual Meters Requested
50,9,InteriorLights:Electricity [kWh] !Monthly [Value,Min,Day,Hour,Minute,Max,Day,Hour,Minute]
87,9,InteriorEquipment:Electricity [kWh] !Monthly [Value,Min,Day,Hour,Minute,Max,Day,Hour,Minute]
205,9,Fans:Electricity [kWh] !Monthly [Value,Min,Day,Hour,Minute,Max,Day,Hour,Minute]
720,9,Heating:Electricity [kWh] !Monthly [Value,Min,Day,Hour,Minute,Max,Day,Hour,Minute]
682,9,Cooling:Electricity [kWh] !Monthly [Value,Min,Day,Hour,Minute,Max,Day,Hour,Minute]
541,9,ElectricityNet:Facility [kWh] !Monthly [Value,Min,Day,Hour,Minute,Max,Day,Hour,Minute]
End of Data Dictionary
1,CHICAGO MIDWAY AP ANN HTG 99.6% CONDNS DB HVAC Sizing Pass 1,  41.78, -87.75,  -6.00, 186.00
4,1, 1
50,0.0000000000000000,0.0000000000000000,21, 1,15,0.0000000000000000,21, 1,15
87,1.2191790575342472,1.2699781849315066E-002,21, 1,15,1.2699781849315066E-002,21, 1,15
205,6.2492724921677567,6.5096588460080748E-002,21, 1,15,6.5096588460080748E-002,21, 1,15
541,333.77497940799350,3.1412389032693842,21, 1,15,3.7050260001504913,21,24,15
682,0.0000000000000000,0.0000000000000000,21, 1,15,0.0000000000000000,21, 1,15
720,324.33436148493763,3.0606925307599884,21, 1,15,3.5126822934428508,21,24,60
1,CHICAGO MIDWAY AP ANN HTG 99% CONDNS DB HVAC Sizing Pass 1,  41.78, -87.75,  -6.00, 186.00
4,1, 1
50,0.0000000000000000,0.0000000000000000,21, 1,15,0.0000000000000000,21, 1,15
87,1.2191790575342472,1.2699781849315066E-002,21, 1,15,1.2699781849315066E-002,21, 1,15
205,6.2492724921677567,6.5096588460080748E-002,21, 1,15,6.5096588460080748E-002,21, 1,15
541,294.46682583870484,2.7349025771348998,21, 1,15,3.2933750773686117,21,24,15
682,0.0000000000000000,0.0000000000000000,21, 1,15,0.0000000000000000,21, 1,15
720,285.02620240000851,2.6543562046255045,21, 1,15,3.1009522017084707,21,24,60
1,CHICAGO MIDWAY AP ANN CLG .4% CONDNS DB=>MWB HVAC Sizing Pass 1,  41.78, -87.75,  -6.00, 186.00
4,1, 7
50,0.0000000000000000,0.0000000000000000,21, 1,15,0.0000000000000000,21, 1,15
87,19.709474472248356,0.20530702575258691,21, 1,15,0.20530702575258691,21, 1,15
205,1.2431329960503321,1.2949302042190932E-002,21, 1,15,1.2949302042190932E-002,21, 1,15
541,33.732340586134207,0.15283915420598401,21,12,30,0.75155499777639412,21,17,60
682,25.822635756533181,9.9774369776486418E-003,21, 5,30,0.52999521967849939,21,16,30
720,0.0000000000000000,0.0000000000000000,21, 1,15,0.0000000000000000,21, 1,15
1,CHICAGO MIDWAY AP ANN CLG 1% CONDNS DB=>MWB HVAC Sizing Pass 1,  41.78, -87.75,  -6.00, 186.00
4,1, 7
50,0.0000000000000000,0.0000000000000000,21, 1,15,0.0000000000000000,21, 1,15
87,19.709474472248356,0.20530702575258691,21, 1,15,0.20530702575258691,21, 1,15
205,1.1279154633177730,4.7194782755795991E-003,21, 3,15,1.2949302042190932E-002,21, 1,15
541,29.146001595095985,9.3380891971420230E-002,21,12,30,0.69369210751028787,21,17,60
682,21.458842787001583,0.0000000000000000,21, 3,15,0.47001598947441181,21,16,30
720,0.0000000000000000,0.0000000000000000,21, 1,15,0.0000000000000000,21, 1,15
1,CHICAGO MIDWAY AP ANN HTG 99.6% CONDNS DB,  41.78, -87.75,  -6.00, 186.00
4,1, 1
50,0.0000000000000000,0.0000000000000000,21, 1,15,0.0000000000000000,21, 1,15
87,1.2191790575342472,1.2699781849315066E-002,21, 1,15,1.2699781849315066E-002,21, 1,15
205,6.2492724921677567,6.5096588460080748E-002,21, 1,15,6.5096588460080748E-002,21, 1,15
541,333.84675030099260,3.1420832644031087,21, 1,15,3.7057445872003680,21,24,15
682,0.0000000000000000,0.0000000000000000,21, 1,15,0.0000000000000000,21, 1,15
720,324.40613237639838,3.0615368918937129,21, 1,15,3.5133988203889399,21,24,60
1,CHICAGO MIDWAY AP ANN HTG 99% CONDNS DB,  41.78, -87.75,  -6.00, 186.00
4,1, 1
50,0.0000000000000000,0.0000000000000000,21, 1,15,0.0000000000000000,21, 1,15
87,1.2191790575342472,1.2699781849315066E-002,21, 1,15,1.2699781849315066E-002,21, 1,15
205,6.2492724921677567,6.5096588460080748E-002,21, 1,15,6.5096588460080748E-002,21, 1,15
541,294.46675850617368,2.7349017858201949,21, 1,15,3.2933744107071727,21,24,15
682,0.0000000000000000,0.0000000000000000,21, 1,15,0.0000000000000000,21, 1,15
720,285.02613506747673,2.6543554133107996,21, 1,15,3.1009515355044419,21,24,60
1,CHICAGO MIDWAY AP ANN CLG .4% CONDNS DB=>MWB,  41.78, -87.75,  -6.00, 186.00
4,1, 7
50,0.0000000000000000,0.0000000000000000,21, 1,15,0.0000000000000000,21, 1,15
87,19.709474472248356,0.20530702575258691,21, 1,15,0.20530702575258691,21, 1,15
205,1.2431329960503321,1.2949302042190932E-002,21, 1,15,1.2949302042190932E-002,21, 1,15
541,33.732340574466043,0.15283915401653009,21,12,30,0.75155499766334088,21,17,60
682,25.822635744865035,9.9774370577037450E-003,21, 5,30,0.52999521956342477,21,16,30
720,0.0000000000000000,0.0000000000000000,21, 1,15,0.0000000000000000,21, 1,15
1,CHICAGO MIDWAY AP ANN CLG 1% CONDNS DB=>MWB,  41.78, -87.75,  -6.00, 186.00
4,1, 7
50,0.0000000000000000,0.0000000000000000,21, 1,15,0.0000000000000000,21, 1,15
87,19.709474472248356,0.20530702575258691,21, 1,15,0.20530702575258691,21, 1,15
205,1.1279154633177730,4.7194782755795991E-003,21, 3,15,1.2949302042190932E-002,21, 1,15
541,29.146001595106029,9.3380891971538246E-002,21,12,30,0.69369210751041199,21,17,60
682,21.458842787011623,0.0000000000000000,21, 3,15,0.47001598947456019,21,16,30
720,0.0000000000000000,0.0000000000000000,21, 1,15,0.0000000000000000,21, 1,15
1,ANNUAL,  41.78, -87.75,  -6.00, 186.00
4,31, 1
50,61.011097161300363,3.9361998168581129E-003, 1, 1,15,6.2979197069729806E-002, 1,21,15
87,324.04641552505967,2.6588558607866103E-002, 1, 4,15,0.24345536346713906, 1,20,15
205,164.63481572451292,4.7194782755795991E-003, 2,20,45,6.5096588460080748E-002, 1, 1,60
541,5747.0240602627855,-4.8577003481330296E-002, 2,11,30,4.0867063557441154,30, 8,30
682,0.0000000000000000,0.0000000000000000, 1, 1,15,0.0000000000000000, 1, 1,15
720,5415.9853247625115,0.0000000000000000, 2,20,45,3.8910460400383231,30, 5,60
4,59, 2
50,55.106797436013338,3.9361998168581129E-003, 1, 1,15,6.2979197069729806E-002, 1,21,15
87,292.68708499037552,2.6588558607866103E-002, 1, 4,15,0.24345536346713906, 1,20,15
205,105.38333305588748,4.7194782755795991E-003,24,13,45,6.5096588460080748E-002, 1, 1,15
541,4049.0372163907373,-0.53057601925263387,24,13,45,5.0213779844124016, 3, 7,60
682,0.0000000000000000,0.0000000000000000, 1, 1,15,0.0000000000000000, 1, 1,15
720,3828.9759393690078,0.0000000000000000,24,13,45,4.8044400305648365, 3, 7,60
4,90, 3
50,61.011097161300363,3.9361998168581129E-003, 1, 1,15,6.2979197069729806E-002, 1,21,15
87,324.04641552505967,2.6588558607866103E-002, 1, 4,15,0.24345536346713906, 1,20,15
205,69.221547045171604,4.7194782755795991E-003,11,12,30,6.5096588460080748E-002, 1, 1,15
541,2259.9963517166912,-0.52134343959321616,11,13,15,2.8127126726715188, 2, 7,15
682,0.0000000000000000,0.0000000000000000, 1, 1,15,0.0000000000000000, 1, 1,15
720,2066.9882453710875,0.0000000000000000,11,12,30,2.6290288845105212, 2, 4,60
4,120, 4
50,59.042997252871352,3.9361998168581129E-003, 1, 1,15,6.2979197069729806E-002, 1,21,15
87,313.59330534683158,2.6588558607866103E-002, 1, 4,15,0.24345536346713906, 1,20,15
205,29.642380835898450,4.7194782755795991E-003, 1,17,15,1.4758570209429141E-002,19, 5,60
541,608.66184219210265,-0.51483619663051616,10,13,15,1.1005653148315628,19, 6,30
682,1.1621735001453843E-002,0.0000000000000000, 1, 1,15,1.0812667247459313E-002, 7,18,30
720,468.22802240703589,0.0000000000000000, 1,17,15,0.98402981717040849,19, 5,60
4,151, 5
50,61.011097161300363,3.9361998168581129E-003, 1, 1,15,6.2979197069729806E-002, 1,21,15
87,324.04641552505967,2.6588558607866103E-002, 1, 4,15,0.24345536346713906, 1,20,15
205,24.522930573779345,4.7194782755795991E-003, 2,15,45,1.2949302042190932E-002, 1, 1,15
541,269.59025264206468,-0.45987950431818714, 3,13,15,0.95395719530651935, 3, 5,45
682,2.5767182850354904,0.0000000000000000, 1, 1,15,0.11881532579479087, 9,18,15
720,175.55364142555069,0.0000000000000000, 2,15,45,0.87013342723410314, 3, 5,45
4,181, 6
50,59.042997252871352,3.9361998168581129E-003, 1, 1,15,6.2979197069729806E-002, 1,21,15
87,313.59330534683158,2.6588558607866103E-002, 1, 4,15,0.24345536346713906, 1,20,15
205,28.094574230010146,4.7194782755795991E-003, 1,13,60,1.2949302042190932E-002, 1, 1,15
541,434.33682656349976,-0.38492102499401332,23,12,30,0.78582904033391943,13,19,15
682,289.19104545009878,0.0000000000000000, 1, 1,15,0.55438502814643398,14,15,60
720,44.547509012757715,0.0000000000000000, 1,13,60,0.22600292144448719, 5, 1,60
4,212, 7
50,61.011097161300363,3.9361998168581129E-003, 1, 1,15,6.2979197069729806E-002, 1,21,15
87,324.04641552505967,2.6588558607866103E-002, 1, 4,15,0.24345536346713906, 1,20,15
205,32.908730227705931,4.7194782755795991E-003, 1, 2,45,1.7467776930562829E-002,24,15,60
541,581.44138023918629,-0.28753324682040160, 2,12,30,1.0002754217191425,24,19,15
682,497.20135337180136,0.0000000000000000, 1, 2,45,0.81763897022248477,24,15,60
720,0.0000000000000000,0.0000000000000000, 1, 1,15,0.0000000000000000, 1, 1,15
4,243, 8
50,61.011097161300363,3.9361998168581129E-003, 1, 1,15,6.2979197069729806E-002, 1,21,15
87,324.04641552505967,2.6588558607866103E-002, 1, 4,15,0.24345536346713906, 1,20,15
205,31.188738236542267,4.7194782755795991E-003, 2,24,15,1.2949302042190932E-002, 1, 1,15
541,517.53724029985790,-0.26699878699442930, 7,12,30,0.86823293292727244, 1,19,15
682,436.43202144155464,0.0000000000000000, 2,24,15,0.61880093713767492, 1,17,15
720,0.0000000000000000,0.0000000000000000, 1, 1,15,0.0000000000000000, 1, 1,15
4,273, 9
50,59.042997252871352,3.9361998168581129E-003, 1, 1,15,6.2979197069729806E-002, 1,21,15
87,313.59330534683158,2.6588558607866103E-002, 1, 4,15,0.24345536346713906, 1,20,15
205,24.802189551852550,4.7194782755795991E-003, 1, 1,15,1.2949302042190932E-002, 1,12,45
541,313.56179776589420,-0.44986517989864133,23,12,45,0.77558432469294680, 6,18,15
682,250.94447576477333,0.0000000000000000, 1, 1,15,0.65097271169848181, 6,15,60
720,0.0000000000000000,0.0000000000000000, 1, 1,15,0.0000000000000000, 1, 1,15
4,304,10
50,61.011097161300363,3.9361998168581129E-003, 1, 1,15,6.2979197069729806E-002, 1,21,15
87,324.04641552505967,2.6588558607866103E-002, 1, 4,15,0.24345536346713906, 1,20,15
205,28.630046359290702,4.7194782755795991E-003, 1, 1,15,1.3216616542084753E-002,28, 4,60
541,499.95263037357120,-0.48387369203363639, 9,13,15,1.0753852471928071,28, 6,60
682,58.552696012521871,0.0000000000000000, 1, 1,15,0.45401259391158166, 4,17,15
720,299.61834015412734,0.0000000000000000, 1, 1,15,0.94455702930246144,28, 4,60
4,334,11
50,59.042997252871352,3.9361998168581129E-003, 1, 1,15,6.2979197069729806E-002, 1,21,15
87,313.59330534683158,2.6588558607866103E-002, 1, 4,15,0.24345536346713906, 1,20,15
205,38.253320458171025,4.7194782755795991E-003, 1, 9,15,6.5096588460080748E-002, 3, 4,60
541,1086.0830730216712,-0.45853210071958750, 4,12,30,1.9760636770962356,30, 7,60
682,0.0000000000000000,0.0000000000000000, 1, 1,15,0.0000000000000000, 1, 1,15
720,977.30460282561376,0.0000000000000000, 1, 9,15,1.8036728008124079,30, 4,60
4,365,12
50,61.011097161300363,3.9361998168581129E-003, 1, 1,15,6.2979197069729806E-002, 1,21,15
87,324.04641552505967,2.6588558607866103E-002, 1, 4,15,0.24345536346713906, 1,20,15
205,117.19301117705317,4.7194782755795991E-003, 9,13,60,6.5096588460080748E-002, 1, 1,15
541,3976.2263346629929,-0.44738216086651672,31,13,15,3.6372912202462340,24, 8,15
682,0.0000000000000000,0.0000000000000000, 1, 1,15,0.0000000000000000, 1, 1,15
720,3726.4371888276460,0.0000000000000000, 9,13,60,3.4279845233683264,24, 5,60
End of Data
 Number of Records Written=         120
