Program Version,EnergyPlus, Version 9.5.0-de239b2e5f, YMD=2024.05.17 14:32
1,5,Environment Title[],Latitude[deg],Longitude[deg],Time Zone[],Elevation[m]
2,8,Day of Simulation[],Month[],Day of Month[],DST Indicator[1=yes 0=no],Hour[],StartMinute[],EndMinute[],DayType
3,5,Cumulative Day of Simulation[],Month[],Day of Month[],DST Indicator[1=yes 0=no],DayType  ! When Daily Meters Requested
4,2,Cumulative Days of Simulation[],Month[]  ! When Monthly Meters Requested
5,1,Cumulative Days of Simulation[] ! When Run Period Meters Requested
6,1,Calendar Year of Simulation[] ! When Annual Meters Requested
50,9,InteriorLights:Electricity [J] !Monthly [Value,Min,Day,Hour,Minute,Max,Day,Hour,Minute]
137,9,InteriorEquipment:Electricity [J] !Monthly [Value,Min,Day,Hour,Minute,Max,Day,Hour,Minute]
297,9,Fans:Electricity [J] !Monthly [Value,Min,Day,Hour,Minute,Max,Day,Hour,Minute]
933,9,Heating:Electricity [J] !Monthly [Value,Min,Day,Hour,Minute,Max,Day,Hour,Minute]
891,9,Cooling:Electricity [J] !Monthly [Value,Min,Day,Hour,Minute,Max,Day,Hour,Minute]
743,9,ElectricityNet:Facility [J] !Monthly [Value,Min,Day,Hour,Minute,Max,Day,Hour,Minute]
End of Data Dictionary
1,GREAT FALLS INTL ARPT ANN HTG 99.6% CONDNS DB HVAC Sizing Pass 1,  47.47,-111.38,  -7.00,1117.00
4,1, 1
50,0.0,0.0,21, 1,15,0.0,21, 1,15
137,95868493.15068485,998630.1369863012,21, 1,15,998630.1369863012,21, 1,15
297,33143127.685567954,345240.91339133228,21, 1,15,345240.91339133228,21, 1,15
743,1222589428.3008123,11815435.468005259,21, 1,15,14090566.458803839,21,23,60
891,0.0,0.0,21, 1,15,0.0,21, 1,15
933,1072380982.2690785,10443664.417627629,21, 1,15,11497030.050512232,21,24,60
1,GREAT FALLS INTL ARPT ANN HTG 99% CONDNS DB HVAC Sizing Pass 1,  47.47,-111.38,  -7.00,1117.00
4,1, 1
50,0.0,0.0,21, 1,15,0.0,21, 1,15
137,95868493.15068485,998630.1369863012,21, 1,15,998630.1369863012,21, 1,15
297,33143127.685567954,345240.91339133228,21, 1,15,345240.91339133228,21, 1,15
743,1123093376.2919815,10790057.880265173,21, 1,15,13046542.26242388,21,23,60
891,0.0,0.0,21, 1,15,0.0,21, 1,15
933,972884943.386276,9418286.829887541,21, 1,15,10452417.319103118,21,24,15
1,GREAT FALLS INTL ARPT ANN CLG .4% CONDNS DB=>MWB HVAC Sizing Pass 1,  47.47,-111.38,  -7.00,1117.00
4,1, 7
50,0.0,0.0,21, 1,15,0.0,21, 1,15
137,212297953.63068513,2211437.016986301,21, 1,15,2211437.016986301,21, 1,15
297,7880153.0156017099,49553.8448009948,21, 4,45,119263.92405129722,21,17,45
743,364806230.4794847,2329090.83708228,21, 6,30,6580013.082751469,21,17,60
891,127182877.39463996,41121.470000662084,21, 6,30,3016331.0475269875,21,17,15
933,0.0,0.0,21, 1,15,0.0,21, 1,15
1,GREAT FALLS INTL ARPT ANN CLG 1% CONDNS DB=>MWB HVAC Sizing Pass 1,  47.47,-111.38,  -7.00,1117.00
4,1, 7
50,0.0,0.0,21, 1,15,0.0,21, 1,15
137,212297953.63068513,2211437.016986301,21, 1,15,2211437.016986301,21, 1,15
297,7122630.587679196,38227.752,21, 5,45,102722.39702378292,21,17,45
743,346726645.14731279,2276625.942502898,21, 7,30,6148113.300815994,21,15,60
891,109861057.84708469,0.0,21, 5,45,2750712.8291228169,21,17,30
933,0.0,0.0,21, 1,15,0.0,21, 1,15
1,GREAT FALLS INTL ARPT ANN HTG 99.6% CONDNS DB,  47.47,-111.38,  -7.00,1117.00
4,1, 1
50,0.0,0.0,21, 1,15,0.0,21, 1,15
137,95868493.15068485,998630.1369863012,21, 1,15,998630.1369863012,21, 1,15
297,33143127.685567954,345240.91339133228,21, 1,15,345240.91339133228,21, 1,15
743,1222747629.8855088,11817226.425213259,21, 1,15,14092129.873794843,21,23,60
891,0.0,0.0,21, 1,15,0.0,21, 1,15
933,1072539183.8676517,10445455.374835629,21, 1,15,11498585.178423318,21,24,60
1,GREAT FALLS INTL ARPT ANN HTG 99% CONDNS DB,  47.47,-111.38,  -7.00,1117.00
4,1, 1
50,0.0,0.0,21, 1,15,0.0,21, 1,15
137,95868493.15068485,998630.1369863012,21, 1,15,998630.1369863012,21, 1,15
297,33143127.685567954,345240.91339133228,21, 1,15,345240.91339133228,21, 1,15
743,1123093259.0487455,10790056.538940773,21, 1,15,13046541.10320549,21,23,60
891,0.0,0.0,21, 1,15,0.0,21, 1,15
933,972884826.143025,9418285.488563139,21, 1,15,10452416.168777014,21,24,15
1,GREAT FALLS INTL ARPT ANN CLG .4% CONDNS DB=>MWB,  47.47,-111.38,  -7.00,1117.00
4,1, 7
50,0.0,0.0,21, 1,15,0.0,21, 1,15
137,212297953.63068513,2211437.016986301,21, 1,15,2211437.016986301,21, 1,15
297,7880153.014626385,49553.8448009948,21, 4,45,119263.92401412559,21,17,45
743,364806230.4466551,2329090.837132783,21, 6,30,6580013.082311376,21,17,60
891,127182877.36278552,41121.47005116549,21, 6,30,3016331.047113119,21,17,15
933,0.0,0.0,21, 1,15,0.0,21, 1,15
1,GREAT FALLS INTL ARPT ANN CLG 1% CONDNS DB=>MWB,  47.47,-111.38,  -7.00,1117.00
4,1, 7
50,0.0,0.0,21, 1,15,0.0,21, 1,15
137,212297953.63068513,2211437.016986301,21, 1,15,2211437.016986301,21, 1,15
297,7122630.587681819,38227.752,21, 5,45,102722.39702390465,21,17,45
743,346726645.14744576,2276625.942502898,21, 7,30,6148113.300818113,21,15,60
891,109861057.84721509,0.0,21, 5,45,2750712.8291244937,21,17,30
933,0.0,0.0,21, 1,15,0.0,21, 1,15
1,ANNUAL,  47.47,-111.38,  -7.00,1117.00
4,31, 1
50,542908523.1173718,35026.35633015328, 1, 1,15,560421.7012824525, 1,21,15
137,14820962985.434506,1275363.649120746, 1, 4,15,7686645.025434918, 1,12,15
297,613969080.8837079,38227.752, 1, 1,15,345240.91339133228, 4, 3,30
743,24325456437.347845,1468716.9150412924,14, 4,15,14541709.593213596,29, 9,15
891,59600286.092481847,0.0, 1, 1,15,593288.2860161283,14,17,15
933,7927070850.716273,0.0, 1, 1,15,11857158.581137546,11, 4,60
4,59, 2
50,490368988.62214258,35026.35633015328, 1, 1,15,560421.7012824525, 1,21,15
137,13386676244.90858,1275363.649120746, 1, 4,15,7686645.025434918, 1,12,15
297,424721406.4387271,38227.752, 1,16,15,345240.91339133228, 1, 1,30
743,18611985299.386484,1488332.3073979517,27, 4,15,12626780.9937371, 1, 9,15
891,323170659.6611403,0.0, 1, 1,15,1780514.3828686027,26,18,15
933,3662042270.9553625,0.0, 1,15,30,9475582.975742054, 4, 4,60
4,90, 3
50,542908523.1173718,35026.35633015328, 1, 1,15,560421.7012824525, 1,21,15
137,14820962985.434506,1275363.649120746, 1, 4,15,7686645.025434918, 1,12,15
297,365580280.7392025,38227.752, 1, 1,15,345240.91339133228, 1, 4,45
743,18802749011.979616,1579732.2802228833,23, 3,15,11272558.08616808, 5, 9,15
891,534523010.2603587,0.0, 1, 1,15,1691446.3467541512,22,18,15
933,2179142028.8927066,0.0, 1, 1,15,9168041.262692307, 5, 4,60
4,120, 4
50,525395344.95229509,35026.35633015328, 1, 1,15,560421.7012824525, 1,21,15
137,14342867405.259198,1275363.649120746, 1, 4,15,7686645.025434918, 1,12,15
297,220302641.19618929,38227.752, 1, 9,30,345240.91339133228,28, 5,45
743,17273296472.116266,1431467.5935800004, 2, 4,15,10101244.646862261,25,20,15
891,1387852112.4992944,0.0, 1, 1,15,2639908.0938031759, 6,18,15
933,449007992.35449948,0.0, 1, 9,30,3818504.107607189,29, 5,60
4,151, 5
50,542908523.1173718,35026.35633015328, 1, 1,15,560421.7012824525, 1,21,15
137,14820962985.434506,1275363.649120746, 1, 4,15,7686645.025434918, 1,12,15
297,253336450.53254126,38227.752, 1, 1,15,327601.1926084764, 8, 5,60
743,18623222459.966627,1431467.5935800004, 2, 4,15,11061141.991158367,19,20,15
891,2356871053.4151484,0.0, 1, 1,15,3337067.2119438138,19,17,15
933,289854436.1134624,0.0, 1, 1,15,2665544.821542282, 8, 5,60
4,181, 6
50,525395344.95229509,35026.35633015328, 1, 1,15,560421.7012824525, 1,21,15
137,14342867405.259198,1275363.649120746, 1, 4,15,7686645.025434918, 1,12,15
297,270468188.77266028,38227.752, 1, 3,60,239242.57494891407,30,19,15
743,19475537064.18114,1431467.5935800004, 1, 4,15,11702721.740544539,30,20,15
891,3976762950.952828,0.0, 1, 3,60,3834400.624811418,30,18,45
933,12451782.432533376,0.0, 1, 1,15,640696.0369942959,17, 5,60
4,212, 7
50,542908523.1173718,35026.35633015328, 1, 1,15,560421.7012824525, 1,21,15
137,14820962985.434506,1275363.649120746, 1, 4,15,7686645.025434918, 1,12,15
297,346646306.75728079,38227.752, 3, 4,30,304221.23238020119,17,18,15
743,21440647620.841989,1431467.5935800004, 3, 4,30,12434974.50238217,17,19,15
891,5370941250.745873,0.0, 3, 4,30,4668121.520112233,17,18,30
933,0.0,0.0, 1, 1,15,0.0, 1, 1,15
4,243, 8
50,542908523.1173718,35026.35633015328, 1, 1,15,560421.7012824525, 1,21,15
137,14820962985.434506,1275363.649120746, 1, 4,15,7686645.025434918, 1,12,15
297,320493512.0601928,38227.752, 2, 2,60,259649.26055792784, 6,17,30
743,20781563572.116514,1431467.5935800004, 2, 4,15,12020952.88428834, 5,20,15
891,4737495945.444391,0.0, 2, 2,60,4274592.113553574, 6,17,30
933,372572.3494306583,0.0, 1, 1,15,76477.58218557469,18, 5,60
4,273, 9
50,525395344.95229509,35026.35633015328, 1, 1,15,560421.7012824525, 1,21,15
137,14342867405.259198,1275363.649120746, 1, 4,15,7686645.025434918, 1,12,15
297,250327812.1996546,38227.752, 9, 3,15,241683.45688816819, 2,17,15
743,18756252123.291646,1431467.5935800004, 9, 4,15,11626421.80768432, 3,12,60
891,3223331348.329305,0.0, 9, 3,15,4096933.5662445018, 2,17,45
933,66392840.32452328,0.0, 1, 1,15,1097768.8965618769,19, 6,60
4,304,10
50,542908523.1173718,35026.35633015328, 1, 1,15,560421.7012824525, 1,21,15
137,14820962985.434506,1275363.649120746, 1, 4,15,7686645.025434918, 1,12,15
297,227054408.44610925,38227.752, 1, 1,60,304025.51356187628, 4, 5,45
743,17864340969.558946,1431467.5935800004, 1, 4,15,10121790.746768944,18,12,60
891,1621362916.5804949,0.0, 1, 1,60,2740485.308216231,18,16,45
933,292282226.22565409,0.0, 1, 1,15,2758905.7420136549,10, 6,60
4,334,11
50,525395344.95229509,35026.35633015328, 1, 1,15,560421.7012824525, 1,21,15
137,14342867405.259198,1275363.649120746, 1, 4,15,7686645.025434918, 1,12,15
297,330466961.2655594,38227.752, 1, 8,15,345240.91339133228,11, 6,60
743,17816356064.390268,1431467.5935800004, 4, 4,15,10062553.825469552,27,10,15
891,636020693.0162697,0.0, 1, 1,15,1498417.4534262657, 3,16,45
933,1633211801.6275669,0.0, 1, 8,15,7457322.179417271,27, 4,60
4,365,12
50,542908523.1173718,35026.35633015328, 1, 1,15,560421.7012824525, 1,21,15
137,14820962985.434506,1275363.649120746, 1, 4,15,7686645.025434918, 1,12,15
297,541322341.9831634,38227.752, 1,10,60,345240.91339133228, 1, 2,45
743,21178648431.930795,1431467.5935800004, 6, 4,15,14082703.264782427,31, 9,15
891,100287974.76839137,0.0, 1, 1,15,784670.9191031298, 6,16,30
933,4813006047.911863,0.0, 1,10,60,9930837.466391489,29, 4,15
End of Data
 Number of Records Written=         120
