Program Version,EnergyPlus, Version 9.5.0-de239b2e5f, YMD=2024.05.17 09:40
1,5,Environment Title[],Latitude[deg],Longitude[deg],Time Zone[],Elevation[m]
2,8,Day of Simulation[],Month[],Day of Month[],DST Indicator[1=yes 0=no],Hour[],StartMinute[],EndMinute[],DayType
3,5,Cumulative Day of Simulation[],Month[],Day of Month[],DST Indicator[1=yes 0=no],DayType  ! When Daily Meters Requested
4,2,Cumulative Days of Simulation[],Month[]  ! When Monthly Meters Requested
5,1,Cumulative Days of Simulation[] ! When Run Period Meters Requested
6,1,Calendar Year of Simulation[] ! When Annual Meters Requested
50,9,InteriorLights:Electricity [kWh] !Monthly [Value,Min,Day,Hour,Minute,Max,Day,Hour,Minute]
87,9,InteriorEquipment:Electricity [kWh] !Monthly [Value,Min,Day,Hour,Minute,Max,Day,Hour,Minute]
206,9,Fans:Electricity [kWh] !Monthly [Value,Min,Day,Hour,Minute,Max,Day,Hour,Minute]
747,9,Heating:Electricity [kWh] !Monthly [Value,Min,Day,Hour,Minute,Max,Day,Hour,Minute]
786,9,Cooling:Electricity [kWh] !Monthly [Value,Min,Day,Hour,Minute,Max,Day,Hour,Minute]
542,9,ElectricityNet:Facility [kWh] !Monthly [Value,Min,Day,Hour,Minute,Max,Day,Hour,Minute]
698,9,NaturalGas:Facility [therm] !Monthly [Value,Min,Day,Hour,Minute,Max,Day,Hour,Minute]
End of Data Dictionary
1,GREAT FALLS INTL ARPT ANN HTG 99.6% CONDNS DB HVAC Sizing Pass 1,  41.98, -87.92,  -6.00, 201.00
4,1, 1
50,0.0000000000000000,0.0000000000000000,21, 1,15,0.0000000000000000,21, 1,15
87,8.8767194301369692,9.2465827397260253E-002,21, 1,15,9.2465827397260253E-002,21, 1,15
206,2.2713892163761189,2.0720711293029478E-002,21, 1,15,2.4973017909742979E-002,21,24,60
542,11.405390859192710,0.11593654089028974,21, 1,15,0.12034639838487600,21,24,15
698,8.7445209021395485,7.6436624083243365E-002,21, 1,15,0.10051978672868475,21,24,15
747,0.0000000000000000,0.0000000000000000,21, 1,15,0.0000000000000000,21, 1,15
786,0.0000000000000000,0.0000000000000000,21, 1,15,0.0000000000000000,21, 1,15
1,GREAT FALLS INTL ARPT ANN HTG 99% CONDNS DB HVAC Sizing Pass 1,  41.98, -87.92,  -6.00, 201.00
4,1, 1
50,0.0000000000000000,0.0000000000000000,21, 1,15,0.0000000000000000,21, 1,15
87,8.8767194301369692,9.2465827397260253E-002,21, 1,15,9.2465827397260253E-002,21, 1,15
206,2.0907903106238490,1.8866495677172124E-002,21, 1,15,2.3070023892329868E-002,21,24,60
542,11.224791952939405,0.11408232527443238,21, 1,15,0.11844421981111131,21,24,15
698,7.8818142080669036,6.7579182794562209E-002,21, 1,15,9.1433229120893120E-002,21,24,15
747,0.0000000000000000,0.0000000000000000,21, 1,15,0.0000000000000000,21, 1,15
786,0.0000000000000000,0.0000000000000000,21, 1,15,0.0000000000000000,21, 1,15
1,GREAT FALLS INTL ARPT ANN CLG .4% CONDNS DB=>MWB HVAC Sizing Pass 1,  41.98, -87.92,  -6.00, 201.00
4,1, 7
50,0.0000000000000000,0.0000000000000000,21, 1,15,0.0000000000000000,21, 1,15
87,28.834832996615106,0.30036284371474026,21, 1,15,0.30036284371474026,21, 1,15
206,1.4552768638541698,4.7194782755795991E-003,21, 1,15,2.9857844170261990E-002,21,17,15
542,45.186038201182392,0.30756690696504779,21, 7,45,0.70910207415768800,21,17,15
698,4.6842942103148981E-002,0.0000000000000000,21, 1,15,3.9036141124320460E-003,21,23,30
747,0.0000000000000000,0.0000000000000000,21, 1,15,0.0000000000000000,21, 1,15
786,14.649330770927177,0.0000000000000000,21, 1,15,0.37644182154166156,21,17,15
1,GREAT FALLS INTL ARPT ANN CLG 1% CONDNS DB=>MWB HVAC Sizing Pass 1,  41.98, -87.92,  -6.00, 201.00
4,1, 7
50,0.0000000000000000,0.0000000000000000,21, 1,15,0.0000000000000000,21, 1,15
87,28.834832996615106,0.30036284371474026,21, 1,15,0.30036284371474026,21, 1,15
206,1.2823422754183429,4.7194782755795991E-003,21, 1,15,2.7235861419193350E-002,21,17,60
542,42.335611817263356,0.30753900907380449,21, 8,30,0.66108565298964028,21,17,15
698,5.0746517035890046E-002,0.0000000000000000,21, 1,15,3.9036176359088927E-003,21,21,30
747,0.0000000000000000,0.0000000000000000,21, 1,15,0.0000000000000000,21, 1,15
786,11.971701719118197,0.0000000000000000,21, 1,15,0.33106357774641221,21,17,15
1,GREAT FALLS INTL ARPT ANN HTG 99.6% CONDNS DB,  41.98, -87.92,  -6.00, 201.00
4,1, 1
50,0.0000000000000000,0.0000000000000000,21, 1,15,0.0000000000000000,21, 1,15
87,8.8767194301369692,9.2465827397260253E-002,21, 1,15,9.2465827397260253E-002,21, 1,15
206,2.2718480737021136,2.0726125565950503E-002,21, 1,15,2.4977534866887783E-002,21,24,60
542,11.405849716518029,0.11594195516321076,21, 1,15,0.12035091231405913,21,24,15
698,8.7467128272659895,7.6462487636601850E-002,21, 1,15,0.10054134941029060,21,24,15
747,0.0000000000000000,0.0000000000000000,21, 1,15,0.0000000000000000,21, 1,15
786,0.0000000000000000,0.0000000000000000,21, 1,15,0.0000000000000000,21, 1,15
1,GREAT FALLS INTL ARPT ANN HTG 99% CONDNS DB,  41.98, -87.92,  -6.00, 201.00
4,1, 1
50,0.0000000000000000,0.0000000000000000,21, 1,15,0.0000000000000000,21, 1,15
87,8.8767194301369692,9.2465827397260253E-002,21, 1,15,9.2465827397260253E-002,21, 1,15
206,2.0907900181961914,1.8866492223940701E-002,21, 1,15,2.3070021017327018E-002,21,24,60
542,11.224791660511752,0.11408232182120095,21, 1,15,0.11844421693786922,21,24,15
698,7.8818128111631269,6.7579166298748911E-002,21, 1,15,9.1433215395644002E-002,21,24,15
747,0.0000000000000000,0.0000000000000000,21, 1,15,0.0000000000000000,21, 1,15
786,0.0000000000000000,0.0000000000000000,21, 1,15,0.0000000000000000,21, 1,15
1,GREAT FALLS INTL ARPT ANN CLG .4% CONDNS DB=>MWB,  41.98, -87.92,  -6.00, 201.00
4,1, 7
50,0.0000000000000000,0.0000000000000000,21, 1,15,0.0000000000000000,21, 1,15
87,28.834832996615106,0.30036284371474026,21, 1,15,0.30036284371474026,21, 1,15
206,1.4552768635911459,4.7194782755795991E-003,21, 1,15,2.9857844166817832E-002,21,17,15
542,45.186038197158965,0.30756690696504779,21, 7,45,0.70910207410266812,21,17,15
698,4.6842942103149779E-002,0.0000000000000000,21, 1,15,3.9036141124321236E-003,21,23,30
747,0.0000000000000000,0.0000000000000000,21, 1,15,0.0000000000000000,21, 1,15
786,14.649330767166802,0.0000000000000000,21, 1,15,0.37644182149008587,21,17,15
1,GREAT FALLS INTL ARPT ANN CLG 1% CONDNS DB=>MWB,  41.98, -87.92,  -6.00, 201.00
4,1, 7
50,0.0000000000000000,0.0000000000000000,21, 1,15,0.0000000000000000,21, 1,15
87,28.834832996615106,0.30036284371474026,21, 1,15,0.30036284371474026,21, 1,15
206,1.2823422754139520,4.7194782755795991E-003,21, 1,15,2.7235861419128024E-002,21,17,60
542,42.335611817196735,0.30753900907380449,21, 8,30,0.66108565298860500,21,17,15
698,5.0746517035890074E-002,0.0000000000000000,21, 1,15,3.9036176359088931E-003,21,21,30
747,0.0000000000000000,0.0000000000000000,21, 1,15,0.0000000000000000,21, 1,15
786,11.971701719055936,0.0000000000000000,21, 1,15,0.33106357774544265,21,17,15
1,ANNUAL,  41.98, -87.92,  -6.00, 201.00
4,31, 1
50,109.03484400671448,7.0345060649494810E-003, 1, 1,15,0.11255209703919170, 1,21,15
87,1476.5845256255766,0.12474488931285735, 1, 4,15,0.76806449124711296, 1,20,15
206,32.220019504734204,4.7194782755795991E-003, 1,11,60,2.3582649581283636E-002,27, 4,60
542,1640.4940076819660,0.14832639369995959,18, 4,15,0.90291517598608972,26,20,60
698,87.233269486727096,1.0912463479010757E-004,10,16,15,9.0111183652577337E-002,27, 4,60
747,0.0000000000000000,0.0000000000000000, 1, 1,15,0.0000000000000000, 1, 1,15
786,0.0000000000000000,0.0000000000000000, 1, 1,15,0.0000000000000000, 1, 1,15
4,59, 2
50,98.483084909290739,7.0345060649494810E-003, 1, 1,15,0.11255209703919170, 1,21,15
87,1333.6892489521292,0.12474488931285735, 1, 4,15,0.76806449124711296, 1,20,15
206,26.679993408394953,4.7194782755795991E-003, 9,12,45,2.2931337144274939E-002, 6, 4,60
542,1479.2978923857468,0.14603811836414152,24, 4,15,0.90084435012453123, 5,20,60
698,67.218393839724811,1.9840842689110468E-005,24, 1,15,8.6999915673785719E-002, 6, 4,60
747,0.0000000000000000,0.0000000000000000, 1, 1,15,0.0000000000000000, 1, 1,15
786,0.0000000000000000,0.0000000000000000, 1, 1,15,0.0000000000000000, 1, 1,15
4,90, 3
50,109.03484400671448,7.0345060649494810E-003, 1, 1,15,0.11255209703919170, 1,21,15
87,1476.5845256255766,0.12474488931285735, 1, 4,15,0.76806449124711296, 1,20,15
206,20.797716899925110,4.7194782755795991E-003, 1,17,15,1.5565645474455863E-002,18, 4,15
542,1629.6286797656066,0.14424887985338641,11, 4,15,0.92098117293719117,27,20,15
698,32.463506412018432,3.3068071148517454E-006,11, 3,15,5.1814589351429317E-002,18, 4,15
747,0.0000000000000000,0.0000000000000000, 1, 1,15,0.0000000000000000, 1, 1,15
786,0.62236247792027877,0.0000000000000000, 1, 1,15,5.5992920810324684E-002,27,18,15
4,120, 4
50,105.51759097423991,7.0345060649494810E-003, 1, 1,15,0.11255209703919170, 1,21,15
87,1428.9527667344275,0.12474488931285735, 1, 4,15,0.76806449124711296, 1,20,15
206,23.535720633517599,4.7194782755795991E-003, 1, 9,45,3.5167976800093724E-002,18,15,30
542,1691.5410841248899,0.14424887985338641,11, 4,15,1.2607782539046679,18,20,15
698,12.003974359843998,3.3068071148517454E-006,11, 3,15,4.4191667083626374E-002, 5, 4,15
747,0.0000000000000000,0.0000000000000000, 1, 1,15,0.0000000000000000, 1, 1,15
786,111.71345457152668,0.0000000000000000, 1, 1,15,0.47330099145190629,18,14,60
4,151, 5
50,109.03484400671448,7.0345060649494810E-003, 1, 1,15,0.11255209703919170, 1,21,15
87,1476.5845256255766,0.12474488931285735, 1, 4,15,0.76806449124711296, 1,20,15
206,31.974126967060652,4.7194782755795991E-003, 1, 1,15,3.1841932981470096E-002,27,18,15
542,1897.3230679149622,0.14424887985338641, 1, 4,15,1.2530948037374576,30,19,15
698,0.40963403815938004,3.3068071148517454E-006, 1, 3,15,2.6123776207328782E-004, 1, 8,15
747,0.0000000000000000,0.0000000000000000, 1, 1,15,0.0000000000000000, 1, 1,15
786,257.23040393447019,0.0000000000000000, 1, 1,15,0.40837129925497090,30,18,15
4,181, 6
50,105.51759097423991,7.0345060649494810E-003, 1, 1,15,0.11255209703919170, 1,21,15
87,1428.9527667344275,0.12474488931285735, 1, 4,15,0.76806449124711296, 1,20,15
206,50.857754774197588,4.7194782755795991E-003, 1, 1,15,4.0116560174881487E-002, 8,13,60
542,2160.0139687675533,0.14424887985338641, 1, 4,15,1.3504119750630108,15,20,15
698,0.39642003692843192,3.3068071148517454E-006, 1, 3,15,2.6123776207328782E-004, 1, 8,15
747,0.0000000000000000,0.0000000000000000, 1, 1,15,0.0000000000000000, 1, 1,15
786,552.92523474134009,0.0000000000000000, 1, 1,15,0.57159269662328749, 8,13,60
4,212, 7
50,109.03484400671448,7.0345060649494810E-003, 1, 1,15,0.11255209703919170, 1,21,15
87,1476.5845256255766,0.12474488931285735, 1, 4,15,0.76806449124711296, 1,20,15
206,66.116467397006105,4.7194782755795991E-003, 1, 1,15,4.1397239798080708E-002, 6,18,15
542,2471.0112841260534,0.14424887985338641, 1, 4,15,1.4779497570219597,16,20,15
698,0.40963403815938004,3.3068071148517454E-006, 1, 3,15,2.6123776207328782E-004, 1, 8,15
747,0.0000000000000000,0.0000000000000000, 1, 1,15,0.0000000000000000, 1, 1,15
786,796.78383294293303,0.0000000000000000, 1, 1,15,0.60302478021275097,19,15,60
4,243, 8
50,109.03484400671448,7.0345060649494810E-003, 1, 1,15,0.11255209703919170, 1,21,15
87,1476.5845256255766,0.12474488931285735, 1, 4,15,0.76806449124711296, 1,20,15
206,56.349506514912271,4.7194782755795991E-003, 1, 3,15,4.1034648122792262E-002, 4,17,15
542,2296.5491400814035,0.14424887985338641, 1, 4,15,1.4076382259470372, 3,20,15
698,0.40963403815938004,3.3068071148517454E-006, 1, 3,15,2.6123776207328782E-004, 1, 8,15
747,0.0000000000000000,0.0000000000000000, 1, 1,15,0.0000000000000000, 1, 1,15
786,632.05224163079231,0.0000000000000000, 1, 3,15,0.57505310143414778, 4,17,15
4,273, 9
50,105.51759097423991,7.0345060649494810E-003, 1, 1,15,0.11255209703919170, 1,21,15
87,1428.9527667344275,0.12474488931285735, 1, 4,15,0.76806449124711296, 1,20,15
206,41.177819714819059,4.7194782755795991E-003, 1, 1,15,3.7637503712391149E-002, 5,16,15
542,1999.8090932401135,0.14424887985338641, 1, 4,15,1.2652707563246324, 6,12,60
698,0.39642003692843192,3.3068071148517454E-006, 1, 3,15,2.6123776207328782E-004, 1, 8,15
747,0.0000000000000000,0.0000000000000000, 1, 1,15,0.0000000000000000, 1, 1,15
786,402.32284724986528,0.0000000000000000, 1, 1,15,0.49971895014665407, 5,15,60
4,304,10
50,109.03484400671448,7.0345060649494810E-003, 1, 1,15,0.11255209703919170, 1,21,15
87,1476.5845256255766,0.12474488931285735, 1, 4,15,0.76806449124711296, 1,20,15
206,19.473408838729725,4.7194782755795991E-003, 1, 1,15,2.2582187199938673E-002, 2,14,60
542,1701.4324081414322,0.14424887985338641, 1, 4,15,1.0628632500819550,21,20,15
698,1.3798564735025716,3.3068071148517454E-006, 1, 3,15,1.8578111115749651E-002,17, 5,60
747,0.0000000000000000,0.0000000000000000, 1, 1,15,0.0000000000000000, 1, 1,15
786,73.724393238958754,0.0000000000000000, 1, 1,15,0.25481032365225859, 2,14,60
4,334,11
50,105.51759097423991,7.0345060649494810E-003, 1, 1,15,0.11255209703919170, 1,21,15
87,1428.9527667344275,0.12474488931285735, 1, 4,15,0.76806449124711296, 1,20,15
206,21.547973259908343,4.7194782755795991E-003, 1, 1,15,1.9575870944378324E-002,26, 4,60
542,1601.2079972226452,0.14424887985338641, 1, 4,15,1.0482750027947474, 3,20,15
698,30.831667652912223,3.3068071148517454E-006, 1, 3,15,7.0971119126305507E-002,26, 4,60
747,0.0000000000000000,0.0000000000000000, 1, 1,15,0.0000000000000000, 1, 1,15
786,23.237465675238184,0.0000000000000000, 1, 1,15,0.19511273158675452, 2,13,60
4,365,12
50,109.03484400671448,7.0345060649494810E-003, 1, 1,15,0.11255209703919170, 1,21,15
87,1476.5845256255766,0.12474488931285735, 1, 4,15,0.76806449124711296, 1,20,15
206,31.027316794692645,4.7194782755795991E-003, 4,12,15,2.1047956536449017E-002,20, 4,60
542,1639.3478272147092,0.14949122080959962, 7, 4,15,0.90030183883395953,20,20,60
698,81.532018291746851,1.0912463479010757E-004, 4,16,15,7.8003155526047863E-002,20, 4,60
747,0.0000000000000000,0.0000000000000000, 1, 1,15,0.0000000000000000, 1, 1,15
786,0.0000000000000000,0.0000000000000000, 1, 1,15,0.0000000000000000, 1, 1,15
End of Data
 Number of Records Written=         140
