Program Version,EnergyPlus, Version 9.5.0-de239b2e5f, YMD=2024.05.17 14:31
1,5,Environment Title[],Latitude[deg],Longitude[deg],Time Zone[],Elevation[m]
2,8,Day of Simulation[],Month[],Day of Month[],DST Indicator[1=yes 0=no],Hour[],StartMinute[],EndMinute[],DayType
3,5,Cumulative Day of Simulation[],Month[],Day of Month[],DST Indicator[1=yes 0=no],DayType  ! When Daily Meters Requested
4,2,Cumulative Days of Simulation[],Month[]  ! When Monthly Meters Requested
5,1,Cumulative Days of Simulation[] ! When Run Period Meters Requested
6,1,Calendar Year of Simulation[] ! When Annual Meters Requested
50,9,InteriorLights:Electricity [J] !Monthly [Value,Min,Day,Hour,Minute,Max,Day,Hour,Minute]
137,9,InteriorEquipment:Electricity [J] !Monthly [Value,Min,Day,Hour,Minute,Max,Day,Hour,Minute]
297,9,Fans:Electricity [J] !Monthly [Value,Min,Day,Hour,Minute,Max,Day,Hour,Minute]
960,9,Heating:Electricity [J] !Monthly [Value,Min,Day,Hour,Minute,Max,Day,Hour,Minute]
1007,9,Cooling:Electricity [J] !Monthly [Value,Min,Day,Hour,Minute,Max,Day,Hour,Minute]
743,9,ElectricityNet:Facility [J] !Monthly [Value,Min,Day,Hour,Minute,Max,Day,Hour,Minute]
911,9,NaturalGas:Facility [J] !Monthly [Value,Min,Day,Hour,Minute,Max,Day,Hour,Minute]
End of Data Dictionary
1,GREAT FALLS INTL ARPT ANN HTG 99.6% CONDNS DB HVAC Sizing Pass 1,  47.47,-111.38,  -7.00,1117.00
4,1, 1
50,0.0,0.0,21, 1,15,0.0,21, 1,15
137,95868493.15068485,998630.1369863012,21, 1,15,998630.1369863012,21, 1,15
297,21015378.737261088,211701.59775435338,21, 1,15,222158.03999295453,21,24,15
743,119559917.49940712,1238231.7347406548,21, 1,15,1250537.8702345195,21,23,60
911,1917322728.585941,18881341.636207567,21, 1,15,21398874.537501348,21,23,60
960,0.0,0.0,21, 1,15,0.0,21, 1,15
1007,0.0,0.0,21, 1,15,0.0,21, 1,15
1,GREAT FALLS INTL ARPT ANN HTG 99% CONDNS DB HVAC Sizing Pass 1,  47.47,-111.38,  -7.00,1117.00
4,1, 1
50,0.0,0.0,21, 1,15,0.0,21, 1,15
137,95868493.15068485,998630.1369863012,21, 1,15,998630.1369863012,21, 1,15
297,19112702.6785802,191967.10239107334,21, 1,15,202261.8793680976,21,24,15
743,117657241.43864259,1218497.2393773746,21, 1,15,1230644.4093542509,21,23,60
911,1708395741.0298537,16715719.36539136,21, 1,15,19213282.438429838,21,23,60
960,0.0,0.0,21, 1,15,0.0,21, 1,15
1007,0.0,0.0,21, 1,15,0.0,21, 1,15
1,GREAT FALLS INTL ARPT ANN CLG .4% CONDNS DB=>MWB HVAC Sizing Pass 1,  47.47,-111.38,  -7.00,1117.00
4,1, 7
50,0.0,0.0,21, 1,15,0.0,21, 1,15
137,212297953.63068513,2211437.016986301,21, 1,15,2211437.016986301,21, 1,15
297,12676225.6017293,38896.112287162716,21, 6,45,253649.75036162753,21,17,30
743,356697510.3105558,2286116.746940524,21, 6,15,5664299.614912815,21,17,15
911,14816643.65207131,0.0,21, 1,15,1234732.0973966167,21, 6,45
960,0.0,0.0,21, 1,15,0.0,21, 1,15
1007,129094768.303217,8769.912237753033,21, 6,45,3172970.328398302,21,16,60
1,GREAT FALLS INTL ARPT ANN CLG 1% CONDNS DB=>MWB HVAC Sizing Pass 1,  47.47,-111.38,  -7.00,1117.00
4,1, 7
50,0.0,0.0,21, 1,15,0.0,21, 1,15
137,212297953.63068513,2211437.016986301,21, 1,15,2211437.016986301,21, 1,15
297,11391419.83267064,38227.752,21, 3,60,235148.52412439756,21,17,30
743,335553898.5629054,2276491.190167457,21, 8,60,5316807.294069732,21,17,15
911,15228156.63695564,0.0,21, 1,15,1234723.9814884228,21, 2,60
960,0.0,0.0,21, 1,15,0.0,21, 1,15
1007,109235483.47147297,0.0,21, 3,60,2843934.677867949,21,17,15
1,GREAT FALLS INTL ARPT ANN HTG 99.6% CONDNS DB,  47.47,-111.38,  -7.00,1117.00
4,1, 1
50,0.0,0.0,21, 1,15,0.0,21, 1,15
137,95868493.15068485,998630.1369863012,21, 1,15,998630.1369863012,21, 1,15
297,21016952.151170646,211719.4011466348,21, 1,15,222173.4362917227,21,24,15
743,119561490.91316469,1238249.538132936,21, 1,15,1250553.4022347518,21,23,60
911,1917518716.6949249,18883559.171530129,21, 1,15,21400809.016443485,21,23,60
960,0.0,0.0,21, 1,15,0.0,21, 1,15
1007,0.0,0.0,21, 1,15,0.0,21, 1,15
1,GREAT FALLS INTL ARPT ANN HTG 99% CONDNS DB,  47.47,-111.38,  -7.00,1117.00
4,1, 1
50,0.0,0.0,21, 1,15,0.0,21, 1,15
137,95868493.15068485,998630.1369863012,21, 1,15,998630.1369863012,21, 1,15
297,19112701.512092405,191967.0890312497,21, 1,15,202261.8679343557,21,24,15
743,117657240.27215483,1218497.2260175509,21, 1,15,1230644.3978314002,21,23,60
911,1708395595.744819,16715717.701450009,21, 1,15,19213281.00341475,21,23,60
960,0.0,0.0,21, 1,15,0.0,21, 1,15
1007,0.0,0.0,21, 1,15,0.0,21, 1,15
1,GREAT FALLS INTL ARPT ANN CLG .4% CONDNS DB=>MWB,  47.47,-111.38,  -7.00,1117.00
4,1, 7
50,0.0,0.0,21, 1,15,0.0,21, 1,15
137,212297953.63068513,2211437.016986301,21, 1,15,2211437.016986301,21, 1,15
297,12676225.599475684,38896.11228448223,21, 6,45,253649.75033120957,21,17,30
743,356697510.2764471,2286116.746877984,21, 6,15,5664299.614428189,21,17,15
911,14816643.65207164,0.0,21, 1,15,1234732.0973966348,21, 6,45
960,0.0,0.0,21, 1,15,0.0,21, 1,15
1007,129094768.27136195,8769.912202580967,21, 6,45,3172970.327937577,21,16,60
1,GREAT FALLS INTL ARPT ANN CLG 1% CONDNS DB=>MWB,  47.47,-111.38,  -7.00,1117.00
4,1, 7
50,0.0,0.0,21, 1,15,0.0,21, 1,15
137,212297953.63068513,2211437.016986301,21, 1,15,2211437.016986301,21, 1,15
297,11391419.832683238,38227.752,21, 3,60,235148.5241245763,21,17,30
743,335553898.5630954,2276491.190167457,21, 8,60,5316807.294072615,21,17,15
911,15228156.636955686,0.0,21, 1,15,1234723.9814884226,21, 2,60
960,0.0,0.0,21, 1,15,0.0,21, 1,15
1007,109235483.47165051,0.0,21, 3,60,2843934.677870647,21,17,15
1,ANNUAL,  47.47,-111.38,  -7.00,1117.00
4,31, 1
50,542908523.1173718,35026.35633015328, 1, 1,15,560421.7012824525, 1,21,15
137,14820962985.434506,1275363.649120746, 1, 4,15,7686645.025434918, 1,12,15
297,292199840.0413006,38227.752, 1,11,30,237042.1493226721,28, 4,60
743,15906878279.539509,1444048.2433679784,14, 4,15,8004525.863196177, 1,20,15
911,19329776832.562845,21846.230969322813, 1,24,15,21817736.37074066,28, 4,60
960,0.0,0.0, 1, 1,15,0.0, 1, 1,15
1007,8720667.510885766,0.0, 1, 1,15,212416.8181886544,14,16,60
4,59, 2
50,490368988.62214258,35026.35633015328, 1, 1,15,560421.7012824525, 1,21,15
137,13386676244.90858,1275363.649120746, 1, 4,15,7686645.025434918, 1,12,15
297,204207870.11851434,38227.752, 6,12,15,192267.70009789445, 4, 4,15
743,14451406289.480433,1442499.6182283706,27, 4,15,8846234.32967483,26,19,15
911,9744330841.269932,2849.5083873029759,27, 2,15,16914479.766814043, 4, 4,15
960,0.0,0.0, 1, 1,15,0.0, 1, 1,15
1007,151422721.84344656,0.0, 1, 1,15,1628624.5574735562,26,18,15
4,90, 3
50,542908523.1173718,35026.35633015328, 1, 1,15,560421.7012824525, 1,21,15
137,14820962985.434506,1275363.649120746, 1, 4,15,7686645.025434918, 1,12,15
297,191172112.81123687,38227.752, 1,11,45,187204.1100758002, 5, 2,30
743,16022048316.771765,1445428.1059941862,23, 4,15,8810181.53226347,22,19,15
911,6461658422.3977379,5699.0167746059519,15, 1,15,16309400.270214165, 5, 2,45
960,0.0,0.0, 1, 1,15,0.0, 1, 1,15
1007,225034412.20162738,0.0, 1, 1,15,1425525.4206453725,22,18,15
4,120, 4
50,525395344.95229509,35026.35633015328, 1, 1,15,560421.7012824525, 1,21,15
137,14342867405.259198,1275363.649120746, 1, 4,15,7686645.025434918, 1,12,15
297,206447030.352645,38227.752, 1,10,45,235670.36886347674, 6,18,15
743,16326150280.706482,1430517.757450899, 7, 4,15,10020470.222324675,25,20,15
911,1877678316.670937,949.8361291009919, 7, 3,15,8886755.155887517,29, 5,60
960,0.0,0.0, 1, 1,15,0.0, 1, 1,15
1007,1017435879.4440792,0.0, 1, 1,15,2580665.4436939975, 6,18,15
4,151, 5
50,542908523.1173718,35026.35633015328, 1, 1,15,560421.7012824525, 1,21,15
137,14820962985.434506,1275363.649120746, 1, 4,15,7686645.025434918, 1,12,15
297,277946478.8309627,38227.752, 1, 9,15,285292.20403719929,19,18,30
743,17882911849.32581,1430517.757450899,12, 4,15,11180294.87783451,19,20,15
911,1435007453.4787107,949.8361291009919, 3, 3,15,7030106.282485955, 8, 5,60
960,0.0,0.0, 1, 1,15,0.0, 1, 1,15
1007,1999466750.9177736,0.0, 1, 1,15,3472867.7912074176,19,16,60
4,181, 6
50,525395344.95229509,35026.35633015328, 1, 1,15,560421.7012824525, 1,21,15
137,14342867405.259198,1275363.649120746, 1, 4,15,7686645.025434918, 1,12,15
297,388064145.82380977,38227.752, 1, 3,15,327548.51677081707,28,19,15
743,19289526844.278665,1430517.757450899, 1, 4,15,11955011.844961144,30,20,15
911,204322684.99892596,949.8361291009919, 1, 3,15,1595437.8620724343,17, 4,60
960,0.0,0.0, 1, 1,15,0.0, 1, 1,15
1007,3799474911.588298,0.0, 1, 3,15,4114625.66409871,28,18,30
4,212, 7
50,542908523.1173718,35026.35633015328, 1, 1,15,560421.7012824525, 1,21,15
137,14820962985.434506,1275363.649120746, 1, 4,15,7686645.025434918, 1,12,15
297,494419656.45756569,38227.752, 2, 3,15,361283.0168721942,17,18,15
743,21479075042.149576,1430517.757450899, 2, 4,15,12796198.297458502,17,19,15
911,123271072.390852,949.8361291009919, 1, 3,15,600801.254627905, 8, 5,60
960,0.0,0.0, 1, 1,15,0.0, 1, 1,15
1007,5379257222.681753,0.0, 2, 3,15,5095435.593430273,17,17,15
4,243, 8
50,542908523.1173718,35026.35633015328, 1, 1,15,560421.7012824525, 1,21,15
137,14820962985.434506,1275363.649120746, 1, 4,15,7686645.025434918, 1,12,15
297,448336539.31808277,38227.752, 1, 4,30,346667.1685326183, 6,17,30
743,20708512471.07673,1430517.757450899, 1, 4,30,12410842.245356255, 5,20,15
911,144935834.37961183,949.8361291009919, 1, 3,15,1220771.813932229,18, 5,60
960,0.0,0.0, 1, 1,15,0.0, 1, 1,15
1007,4654636289.82458,0.0, 1, 4,30,4720663.077548022, 6,17,30
4,273, 9
50,525395344.95229509,35026.35633015328, 1, 1,15,560421.7012824525, 1,21,15
137,14342867405.259198,1275363.649120746, 1, 4,15,7686645.025434918, 1,12,15
297,329215890.8277945,38227.752, 2, 3,45,334839.1969931313, 2,17,15
743,18394028848.571306,1430517.757450899, 2, 4,15,12080070.061737853, 3,12,60
911,499049486.0219907,949.8361291009919, 1, 3,15,3260162.318256085,17, 6,60
960,0.0,0.0, 1, 1,15,0.0, 1, 1,15
1007,2962479190.461886,0.0, 2, 3,45,4521344.495383551, 2,17,60
4,304,10
50,542908523.1173718,35026.35633015328, 1, 1,15,560421.7012824525, 1,21,15
137,14820962985.434506,1275363.649120746, 1, 4,15,7686645.025434918, 1,12,15
297,217465708.70830635,38227.752, 1, 1,15,245299.87416332938,18,16,45
743,17020676162.653302,1430517.757450899, 1, 4,15,10031246.441791673,18,12,60
911,1271657701.5197428,949.8361291009919, 1, 3,15,6435604.132875176,10, 6,60
960,0.0,0.0, 1, 1,15,0.0, 1, 1,15
1007,1197230935.96666,0.0, 1, 1,15,2764160.288566468,18,16,45
4,334,11
50,525395344.95229509,35026.35633015328, 1, 1,15,560421.7012824525, 1,21,15
137,14342867405.259198,1275363.649120746, 1, 4,15,7686645.025434918, 1,12,15
297,182407196.48643,38227.752, 1, 9,30,169626.1034359645,27, 4,60
743,15604400817.782822,1430517.757450899, 5, 4,15,8913348.856689103, 4,20,15
911,5096271899.296375,949.8361291009919, 4, 3,15,14336840.453579583,27, 4,60
960,0.0,0.0, 1, 1,15,0.0, 1, 1,15
1007,319203367.97213748,0.0, 1, 1,15,1259844.066188307, 3,17,15
4,365,12
50,542908523.1173718,35026.35633015328, 1, 1,15,560421.7012824525, 1,21,15
137,14820962985.434506,1275363.649120746, 1, 4,15,7686645.025434918, 1,12,15
297,229601420.7558086,38227.752, 1,12,30,208447.88007666387,31, 7,60
743,15844381040.207354,1430517.757450899,10, 4,15,7999191.681340503, 9,20,60
911,12466009474.348845,949.8361291009919,10, 3,15,18690251.209920844,31, 7,60
960,0.0,0.0, 1, 1,15,0.0, 1, 1,15
1007,8409452.512653884,0.0, 1, 1,15,248213.34948258816, 9,21,60
End of Data
 Number of Records Written=         140
