Program Version,EnergyPlus, Version 9.5.0-de239b2e5f, YMD=2024.05.16 14:30
1,5,Environment Title[],Latitude[deg],Longitude[deg],Time Zone[],Elevation[m]
2,8,Day of Simulation[],Month[],Day of Month[],DST Indicator[1=yes 0=no],Hour[],StartMinute[],EndMinute[],DayType
3,5,Cumulative Day of Simulation[],Month[],Day of Month[],DST Indicator[1=yes 0=no],DayType  ! When Daily Meters Requested
4,2,Cumulative Days of Simulation[],Month[]  ! When Monthly Meters Requested
5,1,Cumulative Days of Simulation[] ! When Run Period Meters Requested
6,1,Calendar Year of Simulation[] ! When Annual Meters Requested
51,9,InteriorLights:Electricity [kWh] !Monthly [Value,Min,Day,Hour,Minute,Max,Day,Hour,Minute]
138,9,InteriorEquipment:Electricity [kWh] !Monthly [Value,Min,Day,Hour,Minute,Max,Day,Hour,Minute]
298,9,Fans:Electricity [kWh] !Monthly [Value,Min,Day,Hour,Minute,Max,Day,Hour,Minute]
965,9,Heating:Electricity [kWh] !Monthly [Value,Min,Day,Hour,Minute,Max,Day,Hour,Minute]
1012,9,Cooling:Electricity [kWh] !Monthly [Value,Min,Day,Hour,Minute,Max,Day,Hour,Minute]
745,9,ElectricityNet:Facility [kWh] !Monthly [Value,Min,Day,Hour,Minute,Max,Day,Hour,Minute]
916,9,NaturalGas:Facility [therm] !Monthly [Value,Min,Day,Hour,Minute,Max,Day,Hour,Minute]
End of Data Dictionary
1,GREAT FALLS INTL ARPT ANN HTG 99.6% CONDNS DB HVAC Sizing Pass 1,  41.98, -87.92,  -6.00, 201.00
4,1, 1
51,0.0000000000000000,0.0000000000000000,21, 1,15,0.0000000000000000,21, 1,15
138,26.630158290410936,0.27739748219178073,21, 1,15,0.27739748219178073,21, 1,15
298,4.1372170186230557,4.0449140708090227E-002,21, 1,15,4.4131864556134201E-002,21,24,60
745,31.501875896634026,0.32559662909987103,21, 1,15,0.32927935294791499,21,24,60
916,9.8836791304747269,9.4137811793134324E-002,21, 1,15,0.10650007070117753,21,24,60
965,0.0000000000000000,0.0000000000000000,21, 1,15,0.0000000000000000,21, 1,15
1012,0.0000000000000000,0.0000000000000000,21, 1,15,0.0000000000000000,21, 1,15
1,GREAT FALLS INTL ARPT ANN HTG 99% CONDNS DB HVAC Sizing Pass 1,  41.98, -87.92,  -6.00, 201.00
4,1, 1
51,0.0000000000000000,0.0000000000000000,21, 1,15,0.0000000000000000,21, 1,15
138,26.630158290410936,0.27739748219178073,21, 1,15,0.27739748219178073,21, 1,15
298,3.7827525489055476,3.6790785657237604E-002,21, 1,15,4.0412304290369072E-002,21,24,60
745,31.147411426916491,0.32193827404901837,21, 1,15,0.32555979268214985,21,24,60
916,8.9467948189108331,8.4498980112939090E-002,21, 1,15,9.6645753308737051E-002,21,24,60
965,0.0000000000000000,0.0000000000000000,21, 1,15,0.0000000000000000,21, 1,15
1012,0.0000000000000000,0.0000000000000000,21, 1,15,0.0000000000000000,21, 1,15
1,GREAT FALLS INTL ARPT ANN CLG .4% CONDNS DB=>MWB HVAC Sizing Pass 1,  41.98, -87.92,  -6.00, 201.00
4,1, 7
51,0.0000000000000000,0.0000000000000000,21, 1,15,0.0000000000000000,21, 1,15
138,58.971700963624450,0.61428855170442076,21, 1,15,0.61428855170442076,21, 1,15
298,0.33980243584173087,3.5396087066847000E-003,21, 1,15,3.5396087066847000E-003,21, 1,15
745,60.035875737905151,0.62515988448590354,21,12,60,0.62557816661110544,21, 1,15
916,0.0000000000000000,0.0000000000000000,21, 1,15,0.0000000000000000,21, 1,15
965,0.0000000000000000,0.0000000000000000,21, 1,15,0.0000000000000000,21, 1,15
1012,0.0000000000000000,0.0000000000000000,21, 1,15,0.0000000000000000,21, 1,15
1,GREAT FALLS INTL ARPT ANN CLG 1% CONDNS DB=>MWB HVAC Sizing Pass 1,  41.98, -87.92,  -6.00, 201.00
4,1, 7
51,0.0000000000000000,0.0000000000000000,21, 1,15,0.0000000000000000,21, 1,15
138,58.971700963624450,0.61428855170442076,21, 1,15,0.61428855170442076,21, 1,15
298,0.33980243584173087,3.5396087066847000E-003,21, 1,15,3.5396087066847000E-003,21, 1,15
745,60.035827526455257,0.62515817881236135,21,12,60,0.62557816661110544,21, 1,15
916,0.0000000000000000,0.0000000000000000,21, 1,15,0.0000000000000000,21, 1,15
965,0.0000000000000000,0.0000000000000000,21, 1,15,0.0000000000000000,21, 1,15
1012,0.0000000000000000,0.0000000000000000,21, 1,15,0.0000000000000000,21, 1,15
1,GREAT FALLS INTL ARPT ANN HTG 99.6% CONDNS DB,  41.98, -87.92,  -6.00, 201.00
4,1, 1
51,0.0000000000000000,0.0000000000000000,21, 1,15,0.0000000000000000,21, 1,15
138,26.630158290410936,0.27739748219178073,21, 1,15,0.27739748219178073,21, 1,15
298,4.1376779837903896,4.0454483519212769E-002,21, 1,15,4.4136436020267490E-002,21,24,60
745,31.502336861801343,0.32560197191099349,21, 1,15,0.32928392441204823,21,24,60
916,9.8852509460931053,9.4156023584868090E-002,21, 1,15,0.10651565813602923,21,24,60
965,0.0000000000000000,0.0000000000000000,21, 1,15,0.0000000000000000,21, 1,15
1012,0.0000000000000000,0.0000000000000000,21, 1,15,0.0000000000000000,21, 1,15
1,GREAT FALLS INTL ARPT ANN HTG 99% CONDNS DB,  41.98, -87.92,  -6.00, 201.00
4,1, 1
51,0.0000000000000000,0.0000000000000000,21, 1,15,0.0000000000000000,21, 1,15
138,26.630158290410936,0.27739748219178073,21, 1,15,0.27739748219178073,21, 1,15
298,3.7827522489844667,3.6790782182957761E-002,21, 1,15,4.0412301318070117E-002,21,24,60
745,31.147411126995419,0.32193827057473856,21, 1,15,0.32555978970985094,21,24,60
916,8.9467937967227886,8.4498968279846307E-002,21, 1,15,9.6645743177887489E-002,21,24,60
965,0.0000000000000000,0.0000000000000000,21, 1,15,0.0000000000000000,21, 1,15
1012,0.0000000000000000,0.0000000000000000,21, 1,15,0.0000000000000000,21, 1,15
1,GREAT FALLS INTL ARPT ANN CLG .4% CONDNS DB=>MWB,  41.98, -87.92,  -6.00, 201.00
4,1, 7
51,0.0000000000000000,0.0000000000000000,21, 1,15,0.0000000000000000,21, 1,15
138,58.971700963624450,0.61428855170442076,21, 1,15,0.61428855170442076,21, 1,15
298,0.33980243584173087,3.5396087066847000E-003,21, 1,15,3.5396087066847000E-003,21, 1,15
745,60.035875737905151,0.62515988448590354,21,12,60,0.62557816661110544,21, 1,15
916,0.0000000000000000,0.0000000000000000,21, 1,15,0.0000000000000000,21, 1,15
965,0.0000000000000000,0.0000000000000000,21, 1,15,0.0000000000000000,21, 1,15
1012,0.0000000000000000,0.0000000000000000,21, 1,15,0.0000000000000000,21, 1,15
1,GREAT FALLS INTL ARPT ANN CLG 1% CONDNS DB=>MWB,  41.98, -87.92,  -6.00, 201.00
4,1, 7
51,0.0000000000000000,0.0000000000000000,21, 1,15,0.0000000000000000,21, 1,15
138,58.971700963624450,0.61428855170442076,21, 1,15,0.61428855170442076,21, 1,15
298,0.33980243584173087,3.5396087066847000E-003,21, 1,15,3.5396087066847000E-003,21, 1,15
745,60.035827526455257,0.62515817881236135,21,12,60,0.62557816661110544,21, 1,15
916,0.0000000000000000,0.0000000000000000,21, 1,15,0.0000000000000000,21, 1,15
965,0.0000000000000000,0.0000000000000000,21, 1,15,0.0000000000000000,21, 1,15
1012,0.0000000000000000,0.0000000000000000,21, 1,15,0.0000000000000000,21, 1,15
1,ANNUAL,  41.98, -87.92,  -6.00, 201.00
4,31, 1
51,0.0000000000000000,0.0000000000000000, 1, 1,15,0.0000000000000000, 1, 1,15
138,825.53490700271027,0.27739748219178073, 1, 1,15,0.27739748219178073, 1, 1,15
298,46.947894701402966,3.5396087066847000E-003, 6, 1,15,8.0421633274413110E-002,13, 1,30
745,895.16720466466666,0.28819859953531052, 7,12,45,0.36556912166619387,13, 1,45
916,96.973123281232319,0.0000000000000000, 6, 1,15,0.20084883150305521,13, 1,30
965,0.0000000000000000,0.0000000000000000, 1, 1,15,0.0000000000000000, 1, 1,15
1012,0.0000000000000000,0.0000000000000000, 1, 1,15,0.0000000000000000, 1, 1,15
4,59, 2
51,0.0000000000000000,0.0000000000000000, 1, 1,15,0.0000000000000000, 1, 1,15
138,745.64443213148104,0.27739748219178073, 1, 1,15,0.27739748219178073, 1, 1,15
298,44.251842647962953,3.5396087066847000E-003, 9,15,30,4.0159400934695999E-002, 6, 7,60
745,810.34183989540441,0.28823654817732913,10,13,30,0.32530688932647678, 6, 7,60
916,92.740940773776600,0.0000000000000000, 9,15,30,9.7123062647273314E-002, 6, 7,60
965,0.0000000000000000,0.0000000000000000, 1, 1,15,0.0000000000000000, 1, 1,15
1012,0.0000000000000000,0.0000000000000000, 1, 1,15,0.0000000000000000, 1, 1,15
4,90, 3
51,0.0000000000000000,0.0000000000000000, 1, 1,15,0.0000000000000000, 1, 1,15
138,825.53490700271027,0.27739748219178073, 1, 1,15,0.27739748219178073, 1, 1,15
298,30.035657973197669,3.5396087066847000E-003, 2,12,30,2.6363718990937059E-002,18, 6,60
745,884.14626322577260,0.28821321468387223,12,13,15,0.41845094624582463,26,17,30
916,50.674763797273897,0.0000000000000000, 2,12,30,6.0167978555112273E-002,18, 6,60
965,0.0000000000000000,0.0000000000000000, 1, 1,15,0.0000000000000000, 1, 1,15
1012,5.9864674943510670,0.0000000000000000, 1, 1,15,0.12152119727388648,26,17,30
4,120, 4
51,0.0000000000000000,0.0000000000000000, 1, 1,15,0.0000000000000000, 1, 1,15
138,798.90474871230049,0.27739748219178073, 1, 1,15,0.27739748219178073, 1, 1,15
298,29.025249898634367,3.5396087066847000E-003, 3,15,60,4.7077859612131061E-002,17,16,45
745,999.15784275005569,0.28823384959407400,25,12,30,1.0131108918112821,18,15,30
916,23.284430697282634,0.0000000000000000, 3,15,60,4.8760167167043740E-002, 5, 6,15
965,0.0000000000000000,0.0000000000000000, 1, 1,15,0.0000000000000000, 1, 1,15
1012,149.40629292790504,0.0000000000000000, 1, 1,15,0.68131362182363320,18,15,30
4,151, 5
51,0.0000000000000000,0.0000000000000000, 1, 1,15,0.0000000000000000, 1, 1,15
138,825.53490700271027,0.27739748219178073, 1, 1,15,0.27739748219178073, 1, 1,15
298,31.158519852114761,3.5396087066847000E-003, 1, 1,15,4.5260521785531152E-002,27,17,45
745,1180.9504139763440,0.28826806754502804,12,13,30,0.96313651362783093, 4,16,60
916,0.67662443907022551,0.0000000000000000, 1, 1,15,1.3546134001458526E-002, 9, 6,45
965,0.0000000000000000,0.0000000000000000, 1, 1,15,0.0000000000000000, 1, 1,15
1012,301.75781974033356,0.0000000000000000, 1, 1,15,0.63320490494234705, 4,16,60
4,181, 6
51,0.0000000000000000,0.0000000000000000, 1, 1,15,0.0000000000000000, 1, 1,15
138,798.90474871230049,0.27739748219178073, 1, 1,15,0.27739748219178073, 1, 1,15
298,53.300671790140981,3.5396087066847000E-003, 1, 6,30,5.1293657295354504E-002,15,16,60
745,1531.7076907086957,0.28831257041506680,23,11,15,1.0869155704936055,15,16,60
916,0.0000000000000000,0.0000000000000000, 1, 1,15,0.0000000000000000, 1, 1,15
965,0.0000000000000000,0.0000000000000000, 1, 1,15,0.0000000000000000, 1, 1,15
1012,657.74164866287254,0.0000000000000000, 1, 6,30,0.75078238656445151,15,16,60
4,212, 7
51,0.0000000000000000,0.0000000000000000, 1, 1,15,0.0000000000000000, 1, 1,15
138,825.53490700271027,0.27739748219178073, 1, 1,15,0.27739748219178073, 1, 1,15
298,56.632508585716650,3.5396087066846982E-003,20,20,60,5.6935203505517583E-002,18,16,60
745,1624.8561026375889,0.28828197795307747,20,13,30,1.2076405235862153,18,16,60
916,0.0000000000000000,0.0000000000000000, 1, 1,15,0.0000000000000000, 1, 1,15
965,0.0000000000000000,0.0000000000000000, 1, 1,15,0.0000000000000000, 1, 1,15
1012,720.19707289531891,0.0000000000000000, 3, 1,15,0.86587044862686779,18,16,60
4,243, 8
51,0.0000000000000000,0.0000000000000000, 1, 1,15,0.0000000000000000, 1, 1,15
138,825.53490700271027,0.27739748219178073, 1, 1,15,0.27739748219178073, 1, 1,15
298,57.122070837655919,3.5396087066847000E-003, 6,23,15,5.2220479082598650E-002, 3,16,45
745,1621.4104520755118,0.28835533121030460, 8, 9,15,1.1089249126640655, 3,16,45
916,0.0000000000000000,0.0000000000000000, 1, 1,15,0.0000000000000000, 1, 1,15
965,0.0000000000000000,0.0000000000000000, 1, 1,15,0.0000000000000000, 1, 1,15
1012,716.22545193169458,0.0000000000000000, 6,23,15,0.77188077468613314, 3,16,45
4,273, 9
51,0.0000000000000000,0.0000000000000000, 1, 1,15,0.0000000000000000, 1, 1,15
138,798.90474871230049,0.27739748219178073, 1, 1,15,0.27739748219178073, 1, 1,15
298,37.622008062159232,3.5396087066847000E-003, 1, 3,30,5.2365170600146796E-002, 5,16,30
745,1276.1899898258614,0.28826463680812253,25,11,15,1.0877889464954105, 5,16,15
916,7.1756412767860892E-002,0.0000000000000000, 1, 1,15,4.0023490172878028E-003,25, 7,30
965,0.0000000000000000,0.0000000000000000, 1, 1,15,0.0000000000000000, 1, 1,15
1012,417.82516448460757,0.0000000000000000, 1, 3,30,0.75072667718873776, 5,16,15
4,304,10
51,0.0000000000000000,0.0000000000000000, 1, 1,15,0.0000000000000000, 1, 1,15
138,825.53490700271027,0.27739748219178073, 1, 1,15,0.27739748219178073, 1, 1,15
298,17.012173599858514,3.5396087066847000E-003, 1, 1,15,2.9723737711401611E-002, 1,16,15
745,913.73721880163009,0.28822737859829728,24,13,30,0.69522265087853719, 1,15,60
916,7.8381669639009290,0.0000000000000000, 1, 1,15,2.7801619402230238E-002,17, 6,45
965,0.0000000000000000,0.0000000000000000, 1, 1,15,0.0000000000000000, 1, 1,15
1012,48.574901767566573,0.0000000000000000, 1, 1,15,0.38077795159432892, 1,15,60
4,334,11
51,0.0000000000000000,0.0000000000000000, 1, 1,15,0.0000000000000000, 1, 1,15
138,798.90474871230049,0.27739748219178073, 1, 1,15,0.27739748219178073, 1, 1,15
298,30.547735321720570,3.5396087066847000E-003, 1, 8,60,3.3870581546971659E-002,26, 7,45
745,860.39537559705639,0.28823221359456841,14,12,30,0.50496284712030559, 4,15,60
916,51.179185413157469,0.0000000000000000, 1, 8,60,7.9688562475908511E-002,26, 7,45
965,0.0000000000000000,0.0000000000000000, 1, 1,15,0.0000000000000000, 1, 1,15
1012,8.9906909841704987,0.0000000000000000, 1, 1,15,0.20325035634174818, 4,15,60
4,365,12
51,0.0000000000000000,0.0000000000000000, 1, 1,15,0.0000000000000000, 1, 1,15
138,825.53490700271027,0.27739748219178073, 1, 1,15,0.27739748219178073, 1, 1,15
298,54.573365934620682,3.5396087066847000E-003, 4,14,30,3.6429088348193125E-002,20, 8,15
745,902.80941372508869,0.28823006115591482, 5,13,15,0.32157657673997386,20, 8,15
916,116.22024041350582,0.0000000000000000, 4,14,30,8.6903815015717950E-002,20, 8,15
965,0.0000000000000000,0.0000000000000000, 1, 1,15,0.0000000000000000, 1, 1,15
1012,0.0000000000000000,0.0000000000000000, 1, 1,15,0.0000000000000000, 1, 1,15
End of Data
 Number of Records Written=         140
