Program Version,EnergyPlus, Version 9.5.0-de239b2e5f, YMD=2024.05.17 14:32
1,5,Environment Title[],Latitude[deg],Longitude[deg],Time Zone[],Elevation[m]
2,8,Day of Simulation[],Month[],Day of Month[],DST Indicator[1=yes 0=no],Hour[],StartMinute[],EndMinute[],DayType
3,5,Cumulative Day of Simulation[],Month[],Day of Month[],DST Indicator[1=yes 0=no],DayType  ! When Daily Meters Requested
4,2,Cumulative Days of Simulation[],Month[]  ! When Monthly Meters Requested
5,1,Cumulative Days of Simulation[] ! When Run Period Meters Requested
6,1,Calendar Year of Simulation[] ! When Annual Meters Requested
51,9,InteriorLights:Electricity [J] !Monthly [Value,Min,Day,Hour,Minute,Max,Day,Hour,Minute]
138,9,InteriorEquipment:Electricity [J] !Monthly [Value,Min,Day,Hour,Minute,Max,Day,Hour,Minute]
298,9,Fans:Electricity [J] !Monthly [Value,Min,Day,Hour,Minute,Max,Day,Hour,Minute]
938,9,Heating:Electricity [J] !Monthly [Value,Min,Day,Hour,Minute,Max,Day,Hour,Minute]
896,9,Cooling:Electricity [J] !Monthly [Value,Min,Day,Hour,Minute,Max,Day,Hour,Minute]
745,9,ElectricityNet:Facility [J] !Monthly [Value,Min,Day,Hour,Minute,Max,Day,Hour,Minute]
End of Data Dictionary
1,GREAT FALLS INTL ARPT ANN HTG 99.6% CONDNS DB HVAC Sizing Pass 1,  47.47,-111.38,  -7.00,1117.00
4,1, 1
51,0.0,0.0,21, 1,15,0.0,21, 1,15
138,95868493.15068485,998630.1369863012,21, 1,15,998630.1369863012,21, 1,15
298,31535393.857672603,328493.6860174223,21, 1,15,328493.6860174223,21, 1,15
745,1048733369.4619248,10182667.030776551,21, 1,15,11215140.002803563,21,24,60
896,0.0,0.0,21, 1,15,0.0,21, 1,15
938,918683482.4535675,8827643.207772829,21, 1,15,9860116.17979984,21,24,60
1,GREAT FALLS INTL ARPT ANN HTG 99% CONDNS DB HVAC Sizing Pass 1,  47.47,-111.38,  -7.00,1117.00
4,1, 1
51,0.0,0.0,21, 1,15,0.0,21, 1,15
138,95868493.15068485,998630.1369863012,21, 1,15,998630.1369863012,21, 1,15
298,31535393.857672603,328493.6860174223,21, 1,15,328493.6860174223,21, 1,15
745,952094548.0509395,9185772.107214923,21, 1,15,10200647.865810387,21,24,60
896,0.0,0.0,21, 1,15,0.0,21, 1,15
938,822044661.0425818,7830748.284211201,21, 1,15,8845624.042806663,21,24,60
1,GREAT FALLS INTL ARPT ANN CLG .4% CONDNS DB=>MWB HVAC Sizing Pass 1,  47.47,-111.38,  -7.00,1117.00
4,1, 7
51,0.0,0.0,21, 1,15,0.0,21, 1,15
138,212297953.63068513,2211437.016986301,21, 1,15,2211437.016986301,21, 1,15
298,1223287.790399999,12742.58115,21, 1,15,12742.58115,21, 1,15
745,216125767.6327077,2250541.699507672,21,13,30,2252079.598136301,21, 1,15
896,0.0,0.0,21, 1,15,0.0,21, 1,15
938,0.0,0.0,21, 1,15,0.0,21, 1,15
1,GREAT FALLS INTL ARPT ANN CLG 1% CONDNS DB=>MWB HVAC Sizing Pass 1,  47.47,-111.38,  -7.00,1117.00
4,1, 7
51,0.0,0.0,21, 1,15,0.0,21, 1,15
138,212297953.63068513,2211437.016986301,21, 1,15,2211437.016986301,21, 1,15
298,1223287.790399999,12742.58115,21, 1,15,12742.58115,21, 1,15
745,216125578.9016121,2250535.1809045297,21,13,30,2252079.598136301,21, 1,15
896,0.0,0.0,21, 1,15,0.0,21, 1,15
938,0.0,0.0,21, 1,15,0.0,21, 1,15
1,GREAT FALLS INTL ARPT ANN HTG 99.6% CONDNS DB,  47.47,-111.38,  -7.00,1117.00
4,1, 1
51,0.0,0.0,21, 1,15,0.0,21, 1,15
138,95868493.15068485,998630.1369863012,21, 1,15,998630.1369863012,21, 1,15
298,31535393.857672603,328493.6860174223,21, 1,15,328493.6860174223,21, 1,15
745,1048890072.1438729,10184479.795415625,21, 1,15,11216656.522268076,21,24,60
896,0.0,0.0,21, 1,15,0.0,21, 1,15
938,918840185.1355157,8829455.9724119,21, 1,15,9861632.699264354,21,24,60
1,GREAT FALLS INTL ARPT ANN HTG 99% CONDNS DB,  47.47,-111.38,  -7.00,1117.00
4,1, 1
51,0.0,0.0,21, 1,15,0.0,21, 1,15
138,95868493.15068485,998630.1369863012,21, 1,15,998630.1369863012,21, 1,15
298,31535393.857672603,328493.6860174223,21, 1,15,328493.6860174223,21, 1,15
745,952094430.4752984,9185770.750159802,21, 1,15,10200646.717322778,21,24,60
896,0.0,0.0,21, 1,15,0.0,21, 1,15
938,822044543.4669412,7830746.92715608,21, 1,15,8845622.894319056,21,24,60
1,GREAT FALLS INTL ARPT ANN CLG .4% CONDNS DB=>MWB,  47.47,-111.38,  -7.00,1117.00
4,1, 7
51,0.0,0.0,21, 1,15,0.0,21, 1,15
138,212297953.63068513,2211437.016986301,21, 1,15,2211437.016986301,21, 1,15
298,1223287.790399999,12742.58115,21, 1,15,12742.58115,21, 1,15
745,216125767.6327077,2250541.699507672,21,13,30,2252079.598136301,21, 1,15
896,0.0,0.0,21, 1,15,0.0,21, 1,15
938,0.0,0.0,21, 1,15,0.0,21, 1,15
1,GREAT FALLS INTL ARPT ANN CLG 1% CONDNS DB=>MWB,  47.47,-111.38,  -7.00,1117.00
4,1, 7
51,0.0,0.0,21, 1,15,0.0,21, 1,15
138,212297953.63068513,2211437.016986301,21, 1,15,2211437.016986301,21, 1,15
298,1223287.790399999,12742.58115,21, 1,15,12742.58115,21, 1,15
745,216125578.9016121,2250535.1809045297,21,13,30,2252079.598136301,21, 1,15
896,0.0,0.0,21, 1,15,0.0,21, 1,15
938,0.0,0.0,21, 1,15,0.0,21, 1,15
1,ANNUAL,  47.47,-111.38,  -7.00,1117.00
4,31, 1
51,0.0,0.0, 1, 1,15,0.0, 1, 1,15
138,2971923287.671127,998630.1369863012, 1, 1,15,998630.1369863012, 1, 1,15
298,523855512.8153193,12742.581149999995, 6, 1,15,328493.6860174223, 1, 7,60
745,12927707574.641266,1037486.547768461, 6,13,30,20309140.637473097,13, 1,30
896,0.0,0.0, 1, 1,15,0.0, 1, 1,15
938,9340546953.927172,0.0, 1,14,15,18967213.305200694,13, 1,30
4,59, 2
51,0.0,0.0, 1, 1,15,0.0, 1, 1,15
138,2684317808.219085,998630.1369863012, 1, 1,15,998630.1369863012, 1, 1,15
298,489838085.986443,12742.58115,12,14,60,328493.6860174223, 1, 1,15
745,10940173975.972733,1037546.4331606234,24,13,30,10623269.895678137, 1, 8,45
896,4642287.685469736,0.0, 1, 1,15,336732.83721806827,26,17,60
938,7687797330.093896,0.0,12,14,60,9268246.072674415, 1, 8,45
4,90, 3
51,0.0,0.0, 1, 1,15,0.0, 1, 1,15
138,2971923287.671127,998630.1369863012, 1, 1,15,998630.1369863012, 1, 1,15
298,456802167.77978149,12742.58115, 1,12,60,328493.6860174223, 1, 1,15
745,9443208054.02369,1037415.2090371756,16,13,30,10226391.268522025, 5, 2,30
896,7668868.805786102,0.0, 1, 1,15,357013.0011220398,22,18,15
938,5925547446.559885,0.0, 1,12,60,8871367.4455183, 5, 2,30
4,120, 4
51,0.0,0.0, 1, 1,15,0.0, 1, 1,15
138,2876054794.5204465,998630.1369863012, 1, 1,15,998630.1369863012, 1, 1,15
298,201913027.60081796,12742.58115, 1,12,45,328493.6860174223, 4, 6,60
745,5404865821.285792,1037564.0435064758, 2,13,30,6393447.492748506,29, 5,60
896,132200085.56956333,0.0, 1, 1,15,1165863.7185992855, 6,18,15
938,2116213292.8966013,0.0, 1,12,45,5038423.669744784,29, 5,60
4,151, 5
51,0.0,0.0, 1, 1,15,0.0, 1, 1,15
138,2971923287.671127,998630.1369863012, 1, 1,15,998630.1369863012, 1, 1,15
298,190212054.76521389,12742.58115, 1,11,30,328493.6860174223, 1, 1,15
745,4975682052.798689,1037631.3380085746, 1,13,30,5231914.771239553, 8, 6,30
896,471282203.1674742,0.0, 1, 1,15,2028336.6500288388,19,16,60
938,1261341396.169601,0.0, 1,11,30,3877798.441640592, 8, 6,30
4,181, 6
51,0.0,0.0, 1, 1,15,0.0, 1, 1,15
138,2876054794.5204465,998630.1369863012, 1, 1,15,998630.1369863012, 1, 1,15
298,104304162.93833225,12742.58115, 1, 1,60,61794.61495328559,30,18,15
745,4623521049.737852,1037773.8465046926,17,12,60,3695295.5334844335,30,17,60
896,1478302791.7416368,0.0, 1, 1,60,2608285.384538821,30,17,60
938,86654263.88226107,0.0, 1, 1,15,1912891.0797295874,17, 4,60
4,212, 7
51,0.0,0.0, 1, 1,15,0.0, 1, 1,15
138,2971923287.671127,998630.1369863012, 1, 1,15,998630.1369863012, 1, 1,15
298,106245432.69164323,12742.581149999995,20,23,45,122536.97811691714,17,17,30
745,5032044098.39373,1037758.4324878189,26,13,30,4792719.080320587,17,17,30
896,1872245526.122809,0.0, 1, 6,15,3644834.0479360746,17,17,30
938,807197.4496135605,0.0, 1, 1,15,529468.8618200122,27, 1,15
4,243, 8
51,0.0,0.0, 1, 1,15,0.0, 1, 1,15
138,2971923287.671127,998630.1369863012, 1, 1,15,998630.1369863012, 1, 1,15
298,120487876.91682768,12742.58115, 1, 4,60,88366.82004241798, 6,17,30
745,5235087926.806311,1037685.9799564313,18,12,60,4285812.374347742, 6,17,30
896,2039342669.6698774,0.0, 1, 4,60,3172078.823056275, 6,17,30
938,22369959.166238689,0.0, 1, 1,15,512471.4853162203,18, 6,15
4,273, 9
51,0.0,0.0, 1, 1,15,0.0, 1, 1,15
138,2876054794.5204465,998630.1369863012, 1, 1,15,998630.1369863012, 1, 1,15
298,100201991.86998557,12742.58115, 2, 3,30,198058.74764311283,17, 3,60
745,4431010950.836567,1037592.812712863,16,13,30,4107006.6202432287, 2,17,15
896,977203681.687756,0.0, 2, 3,30,3001583.048570117, 2,17,15
938,398999465.68818137,0.0, 1, 1,15,2124859.835481257,19, 6,60
4,304,10
51,0.0,0.0, 1, 1,15,0.0, 1, 1,15
138,2971923287.671127,998630.1369863012, 1, 1,15,998630.1369863012, 1, 1,15
298,155478228.75717918,12742.58115, 1, 1,15,328493.6860174223, 4, 4,45
745,4657353238.331784,1037537.6183195432,10,13,30,5608961.9773006499,10, 7,45
896,89554575.61760216,0.0, 1, 1,15,1382894.6088012099,18,16,60
938,1358993136.859324,0.0, 1, 1,15,4254838.154296928,10, 7,45
4,334,11
51,0.0,0.0, 1, 1,15,0.0, 1, 1,15
138,2876054794.5204465,998630.1369863012, 1, 1,15,998630.1369863012, 1, 1,15
298,391154446.50093236,12742.58115, 1,11,45,328493.6860174223, 2, 4,30
745,8164731753.440322,1037602.5936555786,13,13,60,8702482.452085423,27, 5,60
896,112610.68583415228,0.0, 1, 1,15,40741.13500997543, 3,16,60
938,4818402398.620228,0.0, 1,11,45,7347458.6290817,27, 5,60
4,365,12
51,0.0,0.0, 1, 1,15,0.0, 1, 1,15
138,2971923287.671127,998630.1369863012, 1, 1,15,998630.1369863012, 1, 1,15
298,685469887.9840458,12742.58115, 2,14,30,328493.6860174223, 1, 1,15
745,14100479604.984248,1037687.1916837967, 2,14,30,11601929.867605927,31, 9,15
896,0.0,0.0, 1, 1,15,0.0, 1, 1,15
938,10361291770.941899,0.0, 2,14,30,10246906.044602205,31, 9,15
End of Data
 Number of Records Written=         120
