Program Version,EnergyPlus, Version 9.5.0-de239b2e5f, YMD=2024.05.17 14:31
1,5,Environment Title[],Latitude[deg],Longitude[deg],Time Zone[],Elevation[m]
2,8,Day of Simulation[],Month[],Day of Month[],DST Indicator[1=yes 0=no],Hour[],StartMinute[],EndMinute[],DayType
3,5,Cumulative Day of Simulation[],Month[],Day of Month[],DST Indicator[1=yes 0=no],DayType  ! When Daily Meters Requested
4,2,Cumulative Days of Simulation[],Month[]  ! When Monthly Meters Requested
5,1,Cumulative Days of Simulation[] ! When Run Period Meters Requested
6,1,Calendar Year of Simulation[] ! When Annual Meters Requested
51,9,InteriorLights:Electricity [J] !Monthly [Value,Min,Day,Hour,Minute,Max,Day,Hour,Minute]
138,9,InteriorEquipment:Electricity [J] !Monthly [Value,Min,Day,Hour,Minute,Max,Day,Hour,Minute]
298,9,Fans:Electricity [J] !Monthly [Value,Min,Day,Hour,Minute,Max,Day,Hour,Minute]
965,9,Heating:Electricity [J] !Monthly [Value,Min,Day,Hour,Minute,Max,Day,Hour,Minute]
1012,9,Cooling:Electricity [J] !Monthly [Value,Min,Day,Hour,Minute,Max,Day,Hour,Minute]
745,9,ElectricityNet:Facility [J] !Monthly [Value,Min,Day,Hour,Minute,Max,Day,Hour,Minute]
916,9,NaturalGas:Facility [J] !Monthly [Value,Min,Day,Hour,Minute,Max,Day,Hour,Minute]
End of Data Dictionary
1,GREAT FALLS INTL ARPT ANN HTG 99.6% CONDNS DB HVAC Sizing Pass 1,  47.47,-111.38,  -7.00,1117.00
4,1, 1
51,0.0,0.0,21, 1,15,0.0,21, 1,15
138,95868493.15068485,998630.1369863012,21, 1,15,998630.1369863012,21, 1,15
298,17496580.394474918,174746.02326206483,21, 1,15,185147.6732290893,21,24,60
745,116011073.5451598,1201276.1602483663,21, 1,15,1211677.8102153906,21,24,60
916,1715544208.5642937,16952103.183334546,21, 1,15,18229481.532661119,21,24,60
965,0.0,0.0,21, 1,15,0.0,21, 1,15
1012,0.0,0.0,21, 1,15,0.0,21, 1,15
1,GREAT FALLS INTL ARPT ANN HTG 99% CONDNS DB HVAC Sizing Pass 1,  47.47,-111.38,  -7.00,1117.00
4,1, 1
51,0.0,0.0,21, 1,15,0.0,21, 1,15
138,95868493.15068485,998630.1369863012,21, 1,15,998630.1369863012,21, 1,15
298,15556807.223411687,154635.4729754609,21, 1,15,164864.7251018873,21,24,60
745,114071300.37409659,1181165.609961762,21, 1,15,1191394.8620881886,21,24,60
916,1509580172.259348,14818686.407797382,21, 1,15,16074371.958478203,21,24,60
965,0.0,0.0,21, 1,15,0.0,21, 1,15
1012,0.0,0.0,21, 1,15,0.0,21, 1,15
1,GREAT FALLS INTL ARPT ANN CLG .4% CONDNS DB=>MWB HVAC Sizing Pass 1,  47.47,-111.38,  -7.00,1117.00
4,1, 7
51,0.0,0.0,21, 1,15,0.0,21, 1,15
138,212297953.63068513,2211437.016986301,21, 1,15,2211437.016986301,21, 1,15
298,1223287.790399999,12742.58115,21, 1,15,12742.58115,21, 1,15
745,216125767.6327077,2250541.699507672,21,13,30,2252079.598136301,21, 1,15
916,0.0,0.0,21, 1,15,0.0,21, 1,15
965,0.0,0.0,21, 1,15,0.0,21, 1,15
1012,0.0,0.0,21, 1,15,0.0,21, 1,15
1,GREAT FALLS INTL ARPT ANN CLG 1% CONDNS DB=>MWB HVAC Sizing Pass 1,  47.47,-111.38,  -7.00,1117.00
4,1, 7
51,0.0,0.0,21, 1,15,0.0,21, 1,15
138,212297953.63068513,2211437.016986301,21, 1,15,2211437.016986301,21, 1,15
298,1223287.790399999,12742.58115,21, 1,15,12742.58115,21, 1,15
745,216125578.9016121,2250535.1809045297,21,13,30,2252079.598136301,21, 1,15
916,0.0,0.0,21, 1,15,0.0,21, 1,15
965,0.0,0.0,21, 1,15,0.0,21, 1,15
1012,0.0,0.0,21, 1,15,0.0,21, 1,15
1,GREAT FALLS INTL ARPT ANN HTG 99.6% CONDNS DB,  47.47,-111.38,  -7.00,1117.00
4,1, 1
51,0.0,0.0,21, 1,15,0.0,21, 1,15
138,95868493.15068485,998630.1369863012,21, 1,15,998630.1369863012,21, 1,15
298,17498127.300885265,174764.15008421683,21, 1,15,185162.79065842284,21,24,60
745,116012620.4515702,1201294.2870705182,21, 1,15,1211692.927644724,21,24,60
916,1715735983.1425315,16954349.171415174,21, 1,15,18231353.865272426,21,24,60
965,0.0,0.0,21, 1,15,0.0,21, 1,15
1012,0.0,0.0,21, 1,15,0.0,21, 1,15
1,GREAT FALLS INTL ARPT ANN HTG 99% CONDNS DB,  47.47,-111.38,  -7.00,1117.00
4,1, 1
51,0.0,0.0,21, 1,15,0.0,21, 1,15
138,95868493.15068485,998630.1369863012,21, 1,15,998630.1369863012,21, 1,15
298,15556806.048461505,154635.4593969502,21, 1,15,164864.71363430273,21,24,60
745,114071299.19914645,1181165.5963832515,21, 1,15,1191394.850620604,21,24,60
916,1509580026.7057586,14818684.725979358,21, 1,15,16074370.53823778,21,24,60
965,0.0,0.0,21, 1,15,0.0,21, 1,15
1012,0.0,0.0,21, 1,15,0.0,21, 1,15
1,GREAT FALLS INTL ARPT ANN CLG .4% CONDNS DB=>MWB,  47.47,-111.38,  -7.00,1117.00
4,1, 7
51,0.0,0.0,21, 1,15,0.0,21, 1,15
138,212297953.63068513,2211437.016986301,21, 1,15,2211437.016986301,21, 1,15
298,1223287.790399999,12742.58115,21, 1,15,12742.58115,21, 1,15
745,216125767.6327077,2250541.699507672,21,13,30,2252079.598136301,21, 1,15
916,0.0,0.0,21, 1,15,0.0,21, 1,15
965,0.0,0.0,21, 1,15,0.0,21, 1,15
1012,0.0,0.0,21, 1,15,0.0,21, 1,15
1,GREAT FALLS INTL ARPT ANN CLG 1% CONDNS DB=>MWB,  47.47,-111.38,  -7.00,1117.00
4,1, 7
51,0.0,0.0,21, 1,15,0.0,21, 1,15
138,212297953.63068513,2211437.016986301,21, 1,15,2211437.016986301,21, 1,15
298,1223287.790399999,12742.58115,21, 1,15,12742.58115,21, 1,15
745,216125578.9016121,2250535.1809045297,21,13,30,2252079.598136301,21, 1,15
916,0.0,0.0,21, 1,15,0.0,21, 1,15
965,0.0,0.0,21, 1,15,0.0,21, 1,15
1012,0.0,0.0,21, 1,15,0.0,21, 1,15
1,ANNUAL,  47.47,-111.38,  -7.00,1117.00
4,31, 1
51,0.0,0.0, 1, 1,15,0.0, 1, 1,15
138,2971923287.671127,998630.1369863012, 1, 1,15,998630.1369863012, 1, 1,15
298,222585891.10128875,12742.581149999995, 6, 1,30,307578.2937961526,13, 1,30
745,3276252789.2487108,1037486.547768461, 6,13,30,1334108.4307824539,13, 1,30
916,19639926488.064477,0.0, 6, 1,15,31481274.76277891,13, 1,30
965,0.0,0.0, 1, 1,15,0.0, 1, 1,15
1012,0.0,0.0, 1, 1,15,0.0, 1, 1,15
4,59, 2
51,0.0,0.0, 1, 1,15,0.0, 1, 1,15
138,2684317808.219085,998630.1369863012, 1, 1,15,998630.1369863012, 1, 1,15
298,190354043.09165363,12742.58115,12,15,45,167762.21947819484, 1, 8,15
745,2949751650.884476,1037559.9000563661,25,13,30,1253843.2263227888,26,17,60
916,16539945668.657704,0.0,12,15,45,16467735.553389546, 1, 8,15
965,0.0,0.0, 1, 1,15,0.0, 1, 1,15
1012,1501335.5858911472,0.0, 1, 1,15,199870.48392445452,26,17,60
4,90, 3
51,0.0,0.0, 1, 1,15,0.0, 1, 1,15
138,2971923287.671127,998630.1369863012, 1, 1,15,998630.1369863012, 1, 1,15
298,164011259.57373695,12742.58115, 1,14,15,168772.64655253406, 4,24,60
745,3218140089.425106,1037474.0334752636,23,13,30,1200071.7815998779,22,17,60
916,13333409706.801308,0.0, 1,14,15,16529183.843429726, 4,24,60
965,0.0,0.0, 1, 1,15,0.0, 1, 1,15
1012,939258.9731126818,0.0, 1, 1,15,150069.48818156794,22,17,60
4,120, 4
51,0.0,0.0, 1, 1,15,0.0, 1, 1,15
138,2876054794.5204465,998630.1369863012, 1, 1,15,998630.1369863012, 1, 1,15
298,97218780.90059617,12742.58115, 1,13,30,102781.70233488395,29, 5,60
745,3136920869.9508035,1037564.0435064758, 2,13,30,2156218.746305644, 6,18,30
916,5655691723.838143,0.0, 1,13,30,9482378.253916838,29, 5,60
965,0.0,0.0, 1, 1,15,0.0, 1, 1,15
1012,85162673.83140141,0.0, 1, 1,15,1038869.7801143512, 6,18,30
4,151, 5
51,0.0,0.0, 1, 1,15,0.0, 1, 1,15
138,2971923287.671127,998630.1369863012, 1, 1,15,998630.1369863012, 1, 1,15
298,98388638.92789802,12742.58115, 1,12,30,151790.45150543098,19,16,60
745,3503228977.1792919,1037631.3380085746, 1,13,30,3165567.9227212138,19,16,60
916,3597342599.809461,0.0, 1,12,30,8285306.901448631,22, 6,30
965,0.0,0.0, 1, 1,15,0.0, 1, 1,15
1012,351993939.5549611,0.0, 1, 1,15,1988509.134760077,19,16,60
4,181, 6
51,0.0,0.0, 1, 1,15,0.0, 1, 1,15
138,2876054794.5204465,998630.1369863012, 1, 1,15,998630.1369863012, 1, 1,15
298,130969932.39033403,12742.58115, 1, 1,15,193812.9675776134,30,18,15
745,4364842595.978945,1037771.0401889044,17,13,30,3858795.7245758685,30,18,15
916,358768777.9702431,0.0, 1, 1,15,3860092.90094644,17, 4,60
965,0.0,0.0, 1, 1,15,0.0, 1, 1,15
1012,1279612832.4129713,0.0, 1, 1,15,2639487.7231131785,30,18,15
4,212, 7
51,0.0,0.0, 1, 1,15,0.0, 1, 1,15
138,2971923287.671127,998630.1369863012, 1, 1,15,998630.1369863012, 1, 1,15
298,159508955.2210833,12742.581149999995,20,23,15,254399.65705084118,17,17,15
745,4974355595.154593,1037726.7734672919, 8,13,30,5122500.229354795,17,16,60
916,30316040.54002608,0.0, 1, 1,15,2740284.4011519018,27, 1,15
965,0.0,0.0, 1, 1,15,0.0, 1, 1,15
1012,1762100697.8038514,0.0, 1, 4,30,3843453.9480416795,17,16,60
4,243, 8
51,0.0,0.0, 1, 1,15,0.0, 1, 1,15
138,2971923287.671127,998630.1369863012, 1, 1,15,998630.1369863012, 1, 1,15
298,170191742.18908785,12742.58115, 1, 3,45,230874.24657181005, 6,17,30
745,5092289881.669316,1037682.2001747645,18,13,45,4608255.210340549, 6,17,30
916,182605433.45376197,0.0, 1, 1,15,2518597.4397287259,18, 5,60
965,0.0,0.0, 1, 1,15,0.0, 1, 1,15
1012,1869210718.426881,0.0, 1, 3,45,3352014.2325196897, 6,17,30
4,273, 9
51,0.0,0.0, 1, 1,15,0.0, 1, 1,15
138,2876054794.5204465,998630.1369863012, 1, 1,15,998630.1369863012, 1, 1,15
298,109590825.04275404,12742.58115, 1, 2,60,216913.20626491717, 2,17,45
745,3905910405.307192,1037592.812712863,16,13,30,4366913.103506126, 2,17,45
916,1444144778.9843076,0.0, 1, 1,15,4739772.465941795,17, 6,60
965,0.0,0.0, 1, 1,15,0.0, 1, 1,15
1012,841713768.6737775,0.0, 1, 2,60,3124579.2870795715, 2,17,45
4,304,10
51,0.0,0.0, 1, 1,15,0.0, 1, 1,15
138,2971923287.671127,998630.1369863012, 1, 1,15,998630.1369863012, 1, 1,15
298,81568346.38940807,12742.58115, 1, 1,15,101614.62466354927,18,16,60
745,3183497607.079224,1037558.7619464835,11,13,30,2317864.765470946,18,16,60
916,4087285074.959652,0.0, 1, 1,15,8024324.358450776,10, 7,45
965,0.0,0.0, 1, 1,15,0.0, 1, 1,15
1012,48601963.592131029,0.0, 1, 1,15,1190970.3250711673,18,16,60
4,334,11
51,0.0,0.0, 1, 1,15,0.0, 1, 1,15
138,2876054794.5204465,998630.1369863012, 1, 1,15,998630.1369863012, 1, 1,15
298,143331407.01296763,12742.58115, 1,13,60,145140.52826365268,27, 5,60
745,3098393704.646305,1037603.8173490884, 3,13,15,1171670.665249954,27, 5,60
916,11170249983.381758,0.0, 1,13,60,13976779.267946955,27, 5,60
965,0.0,0.0, 1, 1,15,0.0, 1, 1,15
1012,0.0,0.0, 1, 1,15,0.0, 1, 1,15
4,365,12
51,0.0,0.0, 1, 1,15,0.0, 1, 1,15
138,2971923287.671127,998630.1369863012, 1, 1,15,998630.1369863012, 1, 1,15
298,237913691.78562875,12742.58115, 6,15,45,198073.11966502985,31, 8,60
745,3291631637.8438799,1037845.637125174, 6,15,45,1224603.2566513313,31, 8,60
916,21122884781.82055,0.0, 6,15,45,19650358.90371979,31, 8,60
965,0.0,0.0, 1, 1,15,0.0, 1, 1,15
1012,0.0,0.0, 1, 1,15,0.0, 1, 1,15
End of Data
 Number of Records Written=         140
