Program Version,EnergyPlus, Version 9.5.0-de239b2e5f, YMD=2024.05.17 09:32
1,5,Environment Title[],Latitude[deg],Longitude[deg],Time Zone[],Elevation[m]
2,8,Day of Simulation[],Month[],Day of Month[],DST Indicator[1=yes 0=no],Hour[],StartMinute[],EndMinute[],DayType
3,5,Cumulative Day of Simulation[],Month[],Day of Month[],DST Indicator[1=yes 0=no],DayType  ! When Daily Meters Requested
4,2,Cumulative Days of Simulation[],Month[]  ! When Monthly Meters Requested
5,1,Cumulative Days of Simulation[] ! When Run Period Meters Requested
6,1,Calendar Year of Simulation[] ! When Annual Meters Requested
50,9,InteriorLights:Electricity [J] !Monthly [Value,Min,Day,Hour,Minute,Max,Day,Hour,Minute]
87,9,InteriorEquipment:Electricity [J] !Monthly [Value,Min,Day,Hour,Minute,Max,Day,Hour,Minute]
205,9,Fans:Electricity [J] !Monthly [Value,Min,Day,Hour,Minute,Max,Day,Hour,Minute]
746,9,Heating:Electricity [J] !Monthly [Value,Min,Day,Hour,Minute,Max,Day,Hour,Minute]
785,9,Cooling:Electricity [J] !Monthly [Value,Min,Day,Hour,Minute,Max,Day,Hour,Minute]
541,9,ElectricityNet:Facility [J] !Monthly [Value,Min,Day,Hour,Minute,Max,Day,Hour,Minute]
697,9,NaturalGas:Facility [J] !Monthly [Value,Min,Day,Hour,Minute,Max,Day,Hour,Minute]
End of Data Dictionary
1,GREAT FALLS INTL ARPT ANN HTG 99.6% CONDNS DB HVAC Sizing Pass 1,  47.47,-111.38,  -7.00,1117.00
4,1, 1
50,0.0,0.0,21, 1,15,0.0,21, 1,15
87,31956164.38356158,332876.71232876708,21, 1,15,332876.71232876708,21, 1,15
205,12214387.114574505,115589.80965717393,21, 1,15,132345.4464166242,21,24,60
541,45098566.72667506,458366.521985941,21, 1,15,475681.62318661928,21,24,15
697,1332660319.9643298,12358219.167501767,21, 1,15,14856335.742619783,21,24,15
746,0.0,0.0,21, 1,15,0.0,21, 1,15
785,0.0,0.0,21, 1,15,0.0,21, 1,15
1,GREAT FALLS INTL ARPT ANN HTG 99% CONDNS DB HVAC Sizing Pass 1,  47.47,-111.38,  -7.00,1117.00
4,1, 1
50,0.0,0.0,21, 1,15,0.0,21, 1,15
87,31956164.38356158,332876.71232876708,21, 1,15,332876.71232876708,21, 1,15
205,10954183.700131579,102567.10021959969,21, 1,15,119134.64698756585,21,24,60
541,43838363.310997318,445343.8125483668,21, 1,15,462474.1323268615,21,24,15
697,1174709841.0459617,10725988.085604037,21, 1,15,13200944.578328047,21,24,15
746,0.0,0.0,21, 1,15,0.0,21, 1,15
785,0.0,0.0,21, 1,15,0.0,21, 1,15
1,GREAT FALLS INTL ARPT ANN CLG .4% CONDNS DB=>MWB HVAC Sizing Pass 1,  47.47,-111.38,  -7.00,1117.00
4,1, 7
50,0.0,0.0,21, 1,15,0.0,21, 1,15
87,103805315.74356179,1081305.372328767,21, 1,15,1081305.372328767,21, 1,15
205,5764784.338225737,16990.1082,21, 1,15,120437.30950896809,21,17,15
541,169915803.5501402,1107247.0127482375,21, 7,60,2738382.8851458749,21,16,60
697,4938864.648358913,0.0,21, 1,15,411575.1362546593,21,21,30
746,0.0,0.0,21, 1,15,0.0,21, 1,15
785,59461165.09584218,0.0,21, 1,15,1528078.6189582674,21,16,60
1,GREAT FALLS INTL ARPT ANN CLG 1% CONDNS DB=>MWB HVAC Sizing Pass 1,  47.47,-111.38,  -7.00,1117.00
4,1, 7
50,0.0,0.0,21, 1,15,0.0,21, 1,15
87,103805315.74356179,1081305.372328767,21, 1,15,1081305.372328767,21, 1,15
205,5008859.618133003,16990.1082,21, 1,15,107988.32526538868,21,17,15
541,157660131.97705458,1107076.306727582,21, 9,15,2514926.009929825,21,16,60
697,5350471.525443935,0.0,21, 1,15,411578.03990158476,21,23,15
746,0.0,0.0,21, 1,15,0.0,21, 1,15
785,47960939.237378548,0.0,21, 1,15,1317230.9368399217,21,16,60
1,GREAT FALLS INTL ARPT ANN HTG 99.6% CONDNS DB,  47.47,-111.38,  -7.00,1117.00
4,1, 1
50,0.0,0.0,21, 1,15,0.0,21, 1,15
87,31956164.38356158,332876.71232876708,21, 1,15,332876.71232876708,21, 1,15
205,12216585.96527624,115615.74507469498,21, 1,15,132366.99947603857,21,24,60
541,45100765.57737592,458392.4574034621,21, 1,15,475703.1402266291,21,24,15
697,1332935917.9472295,12361469.842394177,21, 1,15,14859032.629992422,21,24,15
746,0.0,0.0,21, 1,15,0.0,21, 1,15
785,0.0,0.0,21, 1,15,0.0,21, 1,15
1,GREAT FALLS INTL ARPT ANN HTG 99% CONDNS DB,  47.47,-111.38,  -7.00,1117.00
4,1, 1
50,0.0,0.0,21, 1,15,0.0,21, 1,15
87,31956164.38356158,332876.71232876708,21, 1,15,332876.71232876708,21, 1,15
205,10954182.053584099,102567.08080150042,21, 1,15,119134.63085799162,21,24,60
541,43838361.66444985,445343.79313026749,21, 1,15,462474.1162191707,21,24,15
697,1174709634.672167,10725985.65179214,21, 1,15,13200942.559433854,21,24,15
746,0.0,0.0,21, 1,15,0.0,21, 1,15
785,0.0,0.0,21, 1,15,0.0,21, 1,15
1,GREAT FALLS INTL ARPT ANN CLG .4% CONDNS DB=>MWB,  47.47,-111.38,  -7.00,1117.00
4,1, 7
50,0.0,0.0,21, 1,15,0.0,21, 1,15
87,103805315.74356179,1081305.372328767,21, 1,15,1081305.372328767,21, 1,15
205,5764784.335204959,16990.1082,21, 1,15,120437.30946684984,21,17,15
541,169915803.50448988,1107247.0127482375,21, 7,60,2738382.8844659139,21,16,60
697,4938864.648359171,0.0,21, 1,15,411575.13625468479,21,21,30
746,0.0,0.0,21, 1,15,0.0,21, 1,15
785,59461165.053212668,0.0,21, 1,15,1528078.618321397,21,16,60
1,GREAT FALLS INTL ARPT ANN CLG 1% CONDNS DB=>MWB,  47.47,-111.38,  -7.00,1117.00
4,1, 7
50,0.0,0.0,21, 1,15,0.0,21, 1,15
87,103805315.74356179,1081305.372328767,21, 1,15,1081305.372328767,21, 1,15
205,5008859.618112077,16990.1082,21, 1,15,107988.3252651061,21,17,15
541,157660131.9767406,1107076.306727582,21, 9,15,2514926.0099253256,21,16,60
697,5350471.5254439399,0.0,21, 1,15,411578.03990158528,21,23,15
746,0.0,0.0,21, 1,15,0.0,21, 1,15
785,47960939.237085457,0.0,21, 1,15,1317230.936835712,21,16,60
1,ANNUAL,  47.47,-111.38,  -7.00,1117.00
4,31, 1
50,392525124.40407267,25324.201574456874, 1, 1,15,405187.22519131, 1,21,15
87,5315700039.692044,449081.24226129267, 1, 4,15,2765029.9564656417, 1,20,15
205,200853392.45899279,16990.1082, 1, 1,15,151989.52332895733,10,24,15
541,5990689763.467467,535036.5499539386, 1, 4,15,3301784.4808446445,10,20,60
697,18880636036.96977,0.0, 1, 1,15,16928479.596891777,10,24,15
746,0.0,0.0, 1, 1,15,0.0, 1, 1,15
785,0.0,0.0, 1, 1,15,0.0, 1, 1,15
4,59, 2
50,354538822.04238906,25324.201574456874, 1, 1,15,405187.22519131, 1,21,15
87,4801277455.205701,449081.24226129267, 1, 4,15,2765029.9564656417, 1,20,15
205,132068869.774944,16990.1082, 7,15,60,119849.59120147984, 4, 4,15
541,5361463611.010778,540048.2360229017,27, 4,15,3283316.4627684589, 9,20,60
697,10868084036.082152,8019.037760724353,26,24,15,12892477.28708877, 4, 4,15
746,0.0,0.0, 1, 1,15,0.0, 1, 1,15
785,0.0,0.0, 1, 1,15,0.0, 1, 1,15
4,90, 3
50,392525124.40407267,25324.201574456874, 1, 1,15,405187.22519131, 1,21,15
87,5315700039.692044,449081.24226129267, 1, 4,15,2765029.9564656417, 1,20,15
205,116022801.41401333,16990.1082, 1,12,15,118402.13415840463, 5, 2,15
541,5905514248.71711,545078.9792645874,23, 4,15,3268241.3648812265, 4,20,60
697,8247798712.516778,11505.57591756103, 1,16,15,12711754.254602407, 5, 2,15
746,0.0,0.0, 1, 1,15,0.0, 1, 1,15
785,0.0,0.0, 1, 1,15,0.0, 1, 1,15
4,120, 4
50,379863023.6168448,25324.201574456874, 1, 1,15,405187.22519131, 1,21,15
87,5144225844.863263,449081.24226129267, 1, 4,15,2765029.9564656417, 1,20,15
205,75557107.02806996,16990.1082, 1,11,45,75719.01654307137,29, 5,60
541,5730625781.5251259,519295.5520357495, 7, 4,15,3717381.20159913,25,20,15
697,2865285266.507582,348.65381568366765, 7, 3,15,7361968.053965134,29, 5,60
746,0.0,0.0, 1, 1,15,0.0, 1, 1,15
785,52495185.318716477,0.0, 1, 1,15,707742.9541077948, 6,18,30
4,151, 5
50,392525124.40407267,25324.201574456874, 1, 1,15,405187.22519131, 1,21,15
87,5315700039.692044,449081.24226129267, 1, 4,15,2765029.9564656417, 1,20,15
205,89230448.26410619,16990.1082, 1, 9,30,114685.93106367336,19,19,15
541,6201980238.612461,519295.5520357495,12, 4,15,4519695.834479857,19,20,15
697,1858611909.067745,348.65381568366765, 3, 3,15,5917705.699292817, 8, 4,60
746,0.0,0.0, 1, 1,15,0.0, 1, 1,15
785,323601515.2270908,0.0, 1, 1,15,1360027.7579747553,19,18,30
4,181, 6
50,379863023.6168448,25324.201574456874, 1, 1,15,405187.22519131, 1,21,15
87,5144225844.863263,449081.24226129267, 1, 4,15,2765029.9564656417, 1,20,15
205,133266119.48817806,16990.1082, 1, 1,15,146974.2731843747,28,19,15
541,6896794115.6919369,519295.5520357495, 1, 4,15,5031459.304667612,28,20,15
697,89871207.1384319,348.65381568366765, 1, 3,15,2306088.860671356,17, 4,60
746,0.0,0.0, 1, 1,15,0.0, 1, 1,15
785,1161234091.0686146,0.0, 1, 1,15,1835535.0859414845,28,19,15
4,212, 7
50,392525124.40407267,25324.201574456874, 1, 1,15,405187.22519131, 1,21,15
87,5315700039.692044,449081.24226129267, 1, 4,15,2765029.9564656417, 1,20,15
205,197822252.9753172,16990.1082, 1, 2,15,184889.91458020983,17,19,15
541,8075750997.466656,519295.5520357495, 1, 4,15,5757744.023236134,17,19,15
697,43189840.07163056,348.65381568366765, 1, 3,15,27543.651439009733, 1, 8,15
746,0.0,0.0, 1, 1,15,0.0, 1, 1,15
785,2088880925.936839,0.0, 1, 2,15,2600098.9446293597,17,17,15
4,243, 8
50,392525124.40407267,25324.201574456874, 1, 1,15,405187.22519131, 1,21,15
87,5315700039.692044,449081.24226129267, 1, 4,15,2765029.9564656417, 1,20,15
205,174651257.70625104,16990.1082, 1, 2,15,175518.7377196244, 6,17,15
541,7697490681.8122229,519295.5520357495, 1, 4,15,5439499.001441952, 5,20,15
697,49325544.15538838,348.65381568366765, 1, 3,15,779361.526994521,18, 5,60
746,0.0,0.0, 1, 1,15,0.0, 1, 1,15
785,1733650126.6277588,0.0, 1, 2,15,2409271.429505787, 6,17,15
4,273, 9
50,379863023.6168448,25324.201574456874, 1, 1,15,405187.22519131, 1,21,15
87,5144225844.863263,449081.24226129267, 1, 4,15,2765029.9564656417, 1,20,15
205,112974942.49727278,16990.1082, 1, 1,15,167637.49201414866, 2,18,15
541,6575311495.316459,519295.5520357495, 1, 4,15,5131190.729478468, 4,19,15
697,371703847.9589074,348.65381568366765, 1, 3,15,3324392.0592713037,19, 4,15
746,0.0,0.0, 1, 1,15,0.0, 1, 1,15
785,859696667.2690312,0.0, 1, 1,15,2277751.2581657825, 2,17,60
4,304,10
50,392525124.40407267,25324.201574456874, 1, 1,15,405187.22519131, 1,21,15
87,5315700039.692044,449081.24226129267, 1, 4,15,2765029.9564656417, 1,20,15
205,69259502.30195081,16990.1082, 1, 1,15,90025.6215266982,18,17,15
541,5938951957.103529,519295.5520357495, 1, 4,15,3614452.098525057,18,20,15
697,1609244098.7768508,348.65381568366765, 1, 3,15,5782260.482172692,10, 6,60
746,0.0,0.0, 1, 1,15,0.0, 1, 1,15
785,80063281.27903758,0.0, 1, 1,15,962428.7975794349,18,17,15
4,334,11
50,379863023.6168448,25324.201574456874, 1, 1,15,405187.22519131, 1,21,15
87,5144225844.863263,449081.24226129267, 1, 4,15,2765029.9564656417, 1,20,15
205,100387696.3082021,16990.1082, 1, 9,45,104183.15087127548,27, 4,60
541,5703484067.901057,519295.5520357495, 5, 4,15,3267832.398358196,26,20,60
697,6491175253.961826,348.65381568366765, 5, 3,15,10928888.145195201,27, 4,60
746,0.0,0.0, 1, 1,15,0.0, 1, 1,15
785,0.0,0.0, 1, 1,15,0.0, 1, 1,15
4,365,12
50,392525124.40407267,25324.201574456874, 1, 1,15,405187.22519131, 1,21,15
87,5315700039.692044,449081.24226129267, 1, 4,15,2765029.9564656417, 1,20,15
205,160896882.85024408,16990.1082, 2,14,30,134400.27033897618,31, 7,60
541,5950916705.33336,531152.4553913864,10, 4,15,3291264.2972301819,31,20,60
697,13872194376.33252,11505.57591756103, 4,16,15,14742020.329514912,31, 7,60
746,0.0,0.0, 1, 1,15,0.0, 1, 1,15
785,0.0,0.0, 1, 1,15,0.0, 1, 1,15
End of Data
 Number of Records Written=         140
