Program Version,EnergyPlus, Version 9.5.0-de239b2e5f, YMD=2024.05.17 09:33
1,5,Environment Title[],Latitude[deg],Longitude[deg],Time Zone[],Elevation[m]
2,8,Day of Simulation[],Month[],Day of Month[],DST Indicator[1=yes 0=no],Hour[],StartMinute[],EndMinute[],DayType
3,5,Cumulative Day of Simulation[],Month[],Day of Month[],DST Indicator[1=yes 0=no],DayType  ! When Daily Meters Requested
4,2,Cumulative Days of Simulation[],Month[]  ! When Monthly Meters Requested
5,1,Cumulative Days of Simulation[] ! When Run Period Meters Requested
6,1,Calendar Year of Simulation[] ! When Annual Meters Requested
50,9,InteriorLights:Electricity [J] !Monthly [Value,Min,Day,Hour,Minute,Max,Day,Hour,Minute]
87,9,InteriorEquipment:Electricity [J] !Monthly [Value,Min,Day,Hour,Minute,Max,Day,Hour,Minute]
205,9,Fans:Electricity [J] !Monthly [Value,Min,Day,Hour,Minute,Max,Day,Hour,Minute]
721,9,Heating:Electricity [J] !Monthly [Value,Min,Day,Hour,Minute,Max,Day,Hour,Minute]
683,9,Cooling:Electricity [J] !Monthly [Value,Min,Day,Hour,Minute,Max,Day,Hour,Minute]
541,9,ElectricityNet:Facility [J] !Monthly [Value,Min,Day,Hour,Minute,Max,Day,Hour,Minute]
End of Data Dictionary
1,GREAT FALLS INTL ARPT ANN HTG 99.6% CONDNS DB HVAC Sizing Pass 1,  47.47,-111.38,  -7.00,1117.00
4,1, 1
50,0.0,0.0,21, 1,15,0.0,21, 1,15
87,31956164.38356158,332876.71232876708,21, 1,15,332876.71232876708,21, 1,15
205,15701524.231133406,163557.54407430648,21, 1,15,163557.54407430648,21, 1,15
541,767490278.0607203,6752100.823376288,21, 1,15,8850242.174951897,21,24,15
683,0.0,0.0,21, 1,15,0.0,21, 1,15
721,712730997.6805076,6245766.566973213,21, 1,15,7942656.133299045,21,24,60
1,GREAT FALLS INTL ARPT ANN HTG 99% CONDNS DB HVAC Sizing Pass 1,  47.47,-111.38,  -7.00,1117.00
4,1, 1
50,0.0,0.0,21, 1,15,0.0,21, 1,15
87,31956164.38356158,332876.71232876708,21, 1,15,332876.71232876708,21, 1,15
205,15701524.231133406,163557.54407430648,21, 1,15,163557.54407430648,21, 1,15
541,695874606.6280156,6016682.626912164,21, 1,15,8096016.081911533,21,24,15
683,0.0,0.0,21, 1,15,0.0,21, 1,15
721,641115315.2628465,5510348.370509089,21, 1,15,7188091.064649571,21,24,60
1,GREAT FALLS INTL ARPT ANN CLG .4% CONDNS DB=>MWB HVAC Sizing Pass 1,  47.47,-111.38,  -7.00,1117.00
4,1, 7
50,0.0,0.0,21, 1,15,0.0,21, 1,15
87,103805315.74356179,1081305.372328767,21, 1,15,1081305.372328767,21, 1,15
205,3230545.715828844,16990.1082,21, 1,45,51078.12497322621,21,17,15
541,169733524.86424289,1107247.0127482375,21, 7,60,2919769.2104694137,21,17,45
683,56874238.337755087,0.0,21, 1,45,1389459.6004092284,21,16,60
721,0.0,0.0,21, 1,15,0.0,21, 1,15
1,GREAT FALLS INTL ARPT ANN CLG 1% CONDNS DB=>MWB HVAC Sizing Pass 1,  47.47,-111.38,  -7.00,1117.00
4,1, 7
50,0.0,0.0,21, 1,15,0.0,21, 1,15
87,103805315.74356179,1081305.372328767,21, 1,15,1081305.372328767,21, 1,15
205,2976968.225408828,16990.1082,21, 1,15,41980.3514744348,21,17,15
541,160111075.97265256,1107165.539503505,21, 8,45,2765657.798717983,21,17,45
683,47505553.47882007,0.0,21, 1,15,1235586.8649560777,21,17,15
721,0.0,0.0,21, 1,15,0.0,21, 1,15
1,GREAT FALLS INTL ARPT ANN HTG 99.6% CONDNS DB,  47.47,-111.38,  -7.00,1117.00
4,1, 1
50,0.0,0.0,21, 1,15,0.0,21, 1,15
87,31956164.38356158,332876.71232876708,21, 1,15,332876.71232876708,21, 1,15
205,15701524.231133406,163557.54407430648,21, 1,15,163557.54407430648,21, 1,15
541,767713115.5344833,6754722.933326829,21, 1,15,8852422.436765634,21,24,15
683,0.0,0.0,21, 1,15,0.0,21, 1,15
721,712953835.1479308,6248388.676923756,21, 1,15,7944840.248929705,21,24,60
1,GREAT FALLS INTL ARPT ANN HTG 99% CONDNS DB,  47.47,-111.38,  -7.00,1117.00
4,1, 1
50,0.0,0.0,21, 1,15,0.0,21, 1,15
87,31956164.38356158,332876.71232876708,21, 1,15,332876.71232876708,21, 1,15
205,15701524.231133406,163557.54407430648,21, 1,15,163557.54407430648,21, 1,15
541,695874439.9518672,6016680.664146461,21, 1,15,8096014.450527391,21,24,15
683,0.0,0.0,21, 1,15,0.0,21, 1,15
721,641115148.5867169,5510346.407743386,21, 1,15,7188089.430928058,21,24,60
1,GREAT FALLS INTL ARPT ANN CLG .4% CONDNS DB=>MWB,  47.47,-111.38,  -7.00,1117.00
4,1, 7
50,0.0,0.0,21, 1,15,0.0,21, 1,15
87,103805315.74356179,1081305.372328767,21, 1,15,1081305.372328767,21, 1,15
205,3230545.7149577259,16990.1082,21, 1,45,51078.12492886574,21,17,15
541,169733524.8220256,1107247.0127482375,21, 7,60,2919769.209866099,21,17,45
683,56874238.29640857,0.0,21, 1,45,1389459.5998193969,21,16,60
721,0.0,0.0,21, 1,15,0.0,21, 1,15
1,GREAT FALLS INTL ARPT ANN CLG 1% CONDNS DB=>MWB,  47.47,-111.38,  -7.00,1117.00
4,1, 7
50,0.0,0.0,21, 1,15,0.0,21, 1,15
87,103805315.74356179,1081305.372328767,21, 1,15,1081305.372328767,21, 1,15
205,2976968.2254050786,16990.1082,21, 1,15,41980.35147414447,21,17,15
541,160111075.97231198,1107165.539503505,21, 8,45,2765657.7987131469,21,17,45
683,47505553.47848324,0.0,21, 1,15,1235586.8649514183,21,17,15
721,0.0,0.0,21, 1,15,0.0,21, 1,15
1,ANNUAL,  47.47,-111.38,  -7.00,1117.00
4,31, 1
50,392525124.40407267,25324.201574456874, 1, 1,15,405187.22519131, 1,21,15
87,5315700039.692044,449081.24226129267, 1, 4,15,2765029.9564656417, 1,20,15
205,350121319.9916139,16990.1082, 1, 1,15,163557.54407430648, 1, 7,30
541,14994567924.920939,569065.7680657277, 1, 3,15,10049002.9725455,10,23,60
683,0.0,0.0, 1, 1,15,0.0, 1, 1,15
721,8811022264.9349,0.0, 1, 1,15,8901813.307097797,11, 2,15
4,59, 2
50,354538822.04238906,25324.201574456874, 1, 1,15,405187.22519131, 1,21,15
87,4801277455.205701,449081.24226129267, 1, 4,15,2765029.9564656417, 1,20,15
205,244760760.77489815,16990.1082, 6,11,60,163557.54407430648, 1, 1,15
541,10377239533.632494,630301.5512376265,27, 3,15,8559745.97825955, 1, 8,15
683,2023038.4563002377,0.0, 1, 1,15,217243.3839344846,26,18,15
721,4862050815.036271,0.0, 6,11,60,7214678.900369136, 4, 4,60
4,90, 3
50,392525124.40407267,25324.201574456874, 1, 1,15,405187.22519131, 1,21,15
87,5315700039.692044,449081.24226129267, 1, 4,15,2765029.9564656417, 1,20,15
205,220135298.24300713,16990.1082, 1,11,15,163557.54407430648, 1, 1,15
541,9419532592.187626,755788.1472849586,21, 1,15,7770630.827133496, 5, 2,60
683,0.0,0.0, 1, 1,15,0.0, 1, 1,15
721,3366716006.569873,0.0, 1,10,60,6997325.170035355, 5, 3,15
4,120, 4
50,379863023.6168448,25324.201574456874, 1, 1,15,405187.22519131, 1,21,15
87,5144225844.863263,449081.24226129267, 1, 4,15,2765029.9564656417, 1,20,15
205,106344653.98186396,16990.1082, 1,10,60,163557.54407430648, 4, 6,60
541,6659794327.56649,519644.2058514332, 7, 4,15,4947337.96133093,29, 6,15
683,99730550.1358727,0.0, 1, 1,15,806775.8733920418, 6,18,15
721,809349014.8462457,0.0, 1,10,60,3979468.200990322,29, 5,60
4,151, 5
50,392525124.40407267,25324.201574456874, 1, 1,15,405187.22519131, 1,21,15
87,5315700039.692044,449081.24226129267, 1, 4,15,2765029.9564656417, 1,20,15
205,112688434.64009908,16990.1082, 1, 8,60,163557.54407430648, 1, 1,15
541,6848202924.617436,519644.2058514332, 3, 4,15,4499923.7718419269,19,20,15
683,423019757.45512226,0.0, 1, 1,15,1339980.9972434024,19,19,15
721,480156617.3292856,0.0, 1, 8,60,3099224.9115125678, 8, 4,60
4,181, 6
50,379863023.6168448,25324.201574456874, 1, 1,15,405187.22519131, 1,21,15
87,5144225844.863263,449081.24226129267, 1, 4,15,2765029.9564656417, 1,20,15
205,90435510.18939372,16990.1082, 1, 1,15,93551.84840732212,28,19,15
541,7031218368.601293,519644.2058514332, 1, 4,15,4947846.591239718,30,20,15
683,1293139094.4993735,0.0, 1, 1,15,1723925.119989415,28,19,15
721,3553239.353208588,0.0, 1, 1,15,513331.94015178448,17, 5,30
4,212, 7
50,392525124.40407267,25324.201574456874, 1, 1,15,405187.22519131, 1,21,15
87,5315700039.692044,449081.24226129267, 1, 4,15,2765029.9564656417, 1,20,15
205,121692203.59566136,16990.1082, 1, 2,45,163557.54407430648,17,17,15
541,8060010701.455366,519644.2058514332, 1, 4,15,5603713.585035612,17,20,15
683,2106080839.233522,0.0, 1, 2,45,2310034.879293042,17,17,15
721,0.0,0.0, 1, 1,15,0.0, 1, 1,15
4,243, 8
50,392525124.40407267,25324.201574456874, 1, 1,15,405187.22519131, 1,21,15
87,5315700039.692044,449081.24226129267, 1, 4,15,2765029.9564656417, 1,20,15
205,111466367.86702778,16990.1082, 1, 2,30,148554.31981160158, 6,17,15
541,7737326915.31577,519644.2058514332, 1, 4,15,5314949.803479759, 5,20,15
683,1793481409.8988777,0.0, 1, 2,30,2177187.996224587, 6,17,15
721,0.0,0.0, 1, 1,15,0.0, 1, 1,15
4,273, 9
50,379863023.6168448,25324.201574456874, 1, 1,15,405187.22519131, 1,21,15
87,5144225844.863263,449081.24226129267, 1, 4,15,2765029.9564656417, 1,20,15
205,86220256.92339343,16990.1082, 1, 1,15,134880.0434108125, 2,18,15
541,6739381677.423179,519644.2058514332, 1, 4,15,4996497.903068178, 4,19,15
683,979617335.4752258,0.0, 1, 1,15,2086143.5540284354, 2,18,15
721,29107580.050226276,0.0, 1, 1,15,978803.9841893982,19, 4,60
4,304,10
50,392525124.40407267,25324.201574456874, 1, 1,15,405187.22519131, 1,21,15
87,5315700039.692044,449081.24226129267, 1, 4,15,2765029.9564656417, 1,20,15
205,92094926.58843395,16990.1082, 1, 1,15,163557.54407430648, 4, 2,15
541,6434370637.760068,519644.2058514332, 1, 4,15,4305679.019959388,10, 7,45
683,159676643.15313474,0.0, 1, 1,15,1017896.1376163649,18,17,15
721,349780054.4243494,0.0, 1, 1,15,2968217.484625076,10, 5,60
4,334,11
50,379863023.6168448,25324.201574456874, 1, 1,15,405187.22519131, 1,21,15
87,5144225844.863263,449081.24226129267, 1, 4,15,2765029.9564656417, 1,20,15
205,189107501.48223133,16990.1082, 1, 8,15,163557.54407430648, 2, 4,30
541,8316524574.550261,519644.2058514332, 4, 4,15,6763391.313560436,27, 7,15
683,1552875.5566630865,0.0, 1, 1,15,125900.4585315237, 4,17,15
721,2480971206.4943296,0.0, 1, 8,15,5906279.986199633,27, 4,60
4,365,12
50,392525124.40407267,25324.201574456874, 1, 1,15,405187.22519131, 1,21,15
87,5315700039.692044,449081.24226129267, 1, 4,15,2765029.9564656417, 1,20,15
205,337368753.3964809,16990.1082, 1,11,60,163557.54407430648, 1, 1,15
541,12681311114.604739,755788.1472849586,10, 1,15,9453999.319467059,31, 9,15
683,0.0,0.0, 1, 1,15,0.0, 1, 1,15
721,6510732698.653482,0.0, 1,11,60,7617246.161834194,29, 4,15
End of Data
 Number of Records Written=         120
