Program Version,EnergyPlus, Version 9.5.0-de239b2e5f, YMD=2024.05.16 09:00
1,5,Environment Title[],Latitude[deg],Longitude[deg],Time Zone[],Elevation[m]
2,8,Day of Simulation[],Month[],Day of Month[],DST Indicator[1=yes 0=no],Hour[],StartMinute[],EndMinute[],DayType
3,5,Cumulative Day of Simulation[],Month[],Day of Month[],DST Indicator[1=yes 0=no],DayType  ! When Daily Meters Requested
4,2,Cumulative Days of Simulation[],Month[]  ! When Monthly Meters Requested
5,1,Cumulative Days of Simulation[] ! When Run Period Meters Requested
6,1,Calendar Year of Simulation[] ! When Annual Meters Requested
50,9,InteriorLights:Electricity [J] !Monthly [Value,Min,Day,Hour,Minute,Max,Day,Hour,Minute]
87,9,InteriorEquipment:Electricity [J] !Monthly [Value,Min,Day,Hour,Minute,Max,Day,Hour,Minute]
205,9,Fans:Electricity [J] !Monthly [Value,Min,Day,Hour,Minute,Max,Day,Hour,Minute]
746,9,Heating:Electricity [J] !Monthly [Value,Min,Day,Hour,Minute,Max,Day,Hour,Minute]
785,9,Cooling:Electricity [J] !Monthly [Value,Min,Day,Hour,Minute,Max,Day,Hour,Minute]
541,9,ElectricityNet:Facility [J] !Monthly [Value,Min,Day,Hour,Minute,Max,Day,Hour,Minute]
697,9,NaturalGas:Facility [J] !Monthly [Value,Min,Day,Hour,Minute,Max,Day,Hour,Minute]
End of Data Dictionary
1,GREAT FALLS INTL ARPT ANN HTG 99.6% CONDNS DB HVAC Sizing Pass 1,  47.47,-111.38,  -7.00,1117.00
4,1, 1
50,0.0,0.0,21, 1,15,0.0,21, 1,15
87,31956164.38356158,332876.71232876708,21, 1,15,332876.71232876708,21, 1,15
205,8436378.659904924,75443.80193559431,21, 1,15,93351.94364272164,21,24,60
541,41320558.23339691,418220.5142643614,21, 1,15,436680.24961674466,21,24,15
697,803708406.4717472,6850346.519282048,21, 1,15,9347019.989990773,21,24,15
746,0.0,0.0,21, 1,15,0.0,21, 1,15
785,0.0,0.0,21, 1,15,0.0,21, 1,15
1,GREAT FALLS INTL ARPT ANN HTG 99% CONDNS DB HVAC Sizing Pass 1,  47.47,-111.38,  -7.00,1117.00
4,1, 1
50,0.0,0.0,21, 1,15,0.0,21, 1,15
87,31956164.38356158,332876.71232876708,21, 1,15,332876.71232876708,21, 1,15
205,7821512.699118526,69150.69660525385,21, 1,15,86856.52050439596,21,24,60
541,40705692.28147325,411927.4089340209,21, 1,15,430188.415035188,21,24,15
697,731650606.4290544,6112840.479198866,21, 1,15,8586224.219619334,21,24,15
746,0.0,0.0,21, 1,15,0.0,21, 1,15
785,0.0,0.0,21, 1,15,0.0,21, 1,15
1,GREAT FALLS INTL ARPT ANN CLG .4% CONDNS DB=>MWB HVAC Sizing Pass 1,  47.47,-111.38,  -7.00,1117.00
4,1, 7
50,0.0,0.0,21, 1,15,0.0,21, 1,15
87,103805315.74356179,1081305.372328767,21, 1,15,1081305.372328767,21, 1,15
205,5599272.848935017,16990.1082,21, 1,45,110286.66330969718,21,17,30
541,167682772.44039534,1107253.5914595065,21, 7,45,2586207.1835596829,21,17,15
697,4938879.952844536,0.0,21, 1,15,411576.9937091299,21,23,30
746,0.0,0.0,21, 1,15,0.0,21, 1,15
785,57393645.45056003,0.0,21, 1,45,1386013.7083819838,21,17,15
1,GREAT FALLS INTL ARPT ANN CLG 1% CONDNS DB=>MWB HVAC Sizing Pass 1,  47.47,-111.38,  -7.00,1117.00
4,1, 7
50,0.0,0.0,21, 1,15,0.0,21, 1,15
87,103805315.74356179,1081305.372328767,21, 1,15,1081305.372328767,21, 1,15
205,5019611.516183757,16990.1082,21, 1,15,102172.10887470658,21,17,30
541,158019674.8868965,1107204.2534659673,21, 8,30,2433447.368063383,21,17,15
697,4938877.013609396,0.0,21, 1,15,411576.579772539,21,21,30
746,0.0,0.0,21, 1,15,0.0,21, 1,15
785,48310397.965676408,0.0,21, 1,15,1241354.4914857806,21,17,15
1,GREAT FALLS INTL ARPT ANN HTG 99.6% CONDNS DB,  47.47,-111.38,  -7.00,1117.00
4,1, 1
50,0.0,0.0,21, 1,15,0.0,21, 1,15
87,31956164.38356158,332876.71232876708,21, 1,15,332876.71232876708,21, 1,15
205,8438730.493944295,75471.4628852257,21, 1,15,93374.99860464083,21,24,60
541,41322910.067436467,418248.17521399279,21, 1,15,436703.2630690192,21,24,15
697,803984024.2659495,6853588.180807913,21, 1,15,9349716.998645749,21,24,15
746,0.0,0.0,21, 1,15,0.0,21, 1,15
785,0.0,0.0,21, 1,15,0.0,21, 1,15
1,GREAT FALLS INTL ARPT ANN HTG 99% CONDNS DB,  47.47,-111.38,  -7.00,1117.00
4,1, 1
50,0.0,0.0,21, 1,15,0.0,21, 1,15
87,31956164.38356158,332876.71232876708,21, 1,15,332876.71232876708,21, 1,15
205,7821510.940180363,69150.67590126029,21, 1,15,86856.50326148048,21,24,60
541,40705690.52253508,411927.38823002736,21, 1,15,430188.3978174478,21,24,15
697,731650400.2943196,6112838.052841846,21, 1,15,8586222.201825882,21,24,15
746,0.0,0.0,21, 1,15,0.0,21, 1,15
785,0.0,0.0,21, 1,15,0.0,21, 1,15
1,GREAT FALLS INTL ARPT ANN CLG .4% CONDNS DB=>MWB,  47.47,-111.38,  -7.00,1117.00
4,1, 7
50,0.0,0.0,21, 1,15,0.0,21, 1,15
87,103805315.74356179,1081305.372328767,21, 1,15,1081305.372328767,21, 1,15
205,5599272.8459310079,16990.1082,21, 1,45,110286.663271629,21,17,30
541,167682772.39478947,1107253.5914595065,21, 7,45,2586207.182952265,21,17,15
697,4938879.952844766,0.0,21, 1,15,411576.9937091526,21,23,30
746,0.0,0.0,21, 1,15,0.0,21, 1,15
785,57393645.407958228,0.0,21, 1,45,1386013.7078128525,21,17,15
1,GREAT FALLS INTL ARPT ANN CLG 1% CONDNS DB=>MWB,  47.47,-111.38,  -7.00,1117.00
4,1, 7
50,0.0,0.0,21, 1,15,0.0,21, 1,15
87,103805315.74356179,1081305.372328767,21, 1,15,1081305.372328767,21, 1,15
205,5019611.516194891,16990.1082,21, 1,15,102172.10887484954,21,17,30
541,158019674.88706399,1107204.2534659673,21, 8,30,2433447.3680656237,21,17,15
697,4938877.013609395,0.0,21, 1,15,411576.57977253876,21,21,30
746,0.0,0.0,21, 1,15,0.0,21, 1,15
785,48310397.965832639,0.0,21, 1,15,1241354.4914878773,21,17,15
1,ANNUAL,  47.47,-111.38,  -7.00,1117.00
4,31, 1
50,392525124.40407267,25324.201574456874, 1, 1,15,405187.22519131, 1,21,15
87,5315700039.692044,449081.24226129267, 1, 4,15,2765029.9564656417, 1,20,15
205,134990751.42080436,16990.1082, 1, 1,15,102145.91040286451,11, 4,45
541,5924823235.973377,519295.5520357495, 1, 4,15,3262748.430478469,10,20,60
697,9937958679.737175,0.0, 1, 1,15,9979987.508731109,11, 4,45
746,0.0,0.0, 1, 1,15,0.0, 1, 1,15
785,0.0,0.0, 1, 1,15,0.0, 1, 1,15
4,59, 2
50,354538822.04238906,25324.201574456874, 1, 1,15,405187.22519131, 1,21,15
87,4801277455.205701,449081.24226129267, 1, 4,15,2765029.9564656417, 1,20,15
205,94148023.18622974,16990.1082, 6,11,30,87244.68759718181, 4, 4,60
541,5327087240.448846,523392.71625137727,27, 4,15,3248584.4254595616, 4,20,60
697,5687604445.301569,348.65381568366765,27, 3,15,8233672.891870619, 4, 4,60
746,0.0,0.0, 1, 1,15,0.0, 1, 1,15
785,3544476.0268061386,0.0, 1, 1,15,278119.05307967305,26,18,15
4,90, 3
50,392525124.40407267,25324.201574456874, 1, 1,15,405187.22519131, 1,21,15
87,5315700039.692044,449081.24226129267, 1, 4,15,2765029.9564656417, 1,20,15
205,83094830.5365129,16990.1082, 1, 1,15,85094.43150495955, 5, 4,60
541,5873021099.000741,528334.6085204154,23, 4,15,3242041.79234021, 4,20,60
697,3851703063.2543447,1045.9614470510026,23, 2,15,7981678.562760322, 5, 4,60
746,0.0,0.0, 1, 1,15,0.0, 1, 1,15
785,434821.16113212137,0.0, 1, 1,15,85599.57674777175,28,19,15
4,120, 4
50,379863023.6168448,25324.201574456874, 1, 1,15,405187.22519131, 1,21,15
87,5144225844.863263,449081.24226129267, 1, 4,15,2765029.9564656417, 1,20,15
205,65710747.1633095,16990.1082, 1,10,45,81362.84260664486, 6,18,30
541,5790052549.254569,519295.5520357495, 7, 4,15,3876889.223852481,24,20,15
697,915592916.8299607,348.65381568366765, 3, 3,15,4494744.003494746,29, 5,60
746,0.0,0.0, 1, 1,15,0.0, 1, 1,15
785,121768312.91290492,0.0, 1, 1,15,848819.0556634724, 6,18,30
4,151, 5
50,392525124.40407267,25324.201574456874, 1, 1,15,405187.22519131, 1,21,15
87,5315700039.692044,449081.24226129267, 1, 4,15,2765029.9564656417, 1,20,15
205,89078125.77707027,16990.1082, 1, 8,45,114626.38890877548,19,19,15
541,6344940642.993387,519295.5520357495, 3, 4,15,4564850.44248726,19,20,15
697,503357638.6376439,348.65381568366765, 2, 3,15,3534686.721345462, 8, 4,60
746,0.0,0.0, 1, 1,15,0.0, 1, 1,15
785,466714242.0950434,0.0, 1, 1,15,1359850.6346597032,19,19,15
4,181, 6
50,379863023.6168448,25324.201574456874, 1, 1,15,405187.22519131, 1,21,15
87,5144225844.863263,449081.24226129267, 1, 4,15,2765029.9564656417, 1,20,15
205,146671147.04803283,16990.1082, 1, 1,15,136647.90732951603,28,19,15
541,7102061663.145626,519295.5520357495, 1, 4,15,4983115.425705279,28,20,15
697,42480114.47614768,348.65381568366765, 1, 3,15,222802.31519624149,17, 5,60
746,0.0,0.0, 1, 1,15,0.0, 1, 1,15
785,1353096610.9624258,0.0, 1, 1,15,1718757.0569826544,28,19,15
4,212, 7
50,392525124.40407267,25324.201574456874, 1, 1,15,405187.22519131, 1,21,15
87,5315700039.692044,449081.24226129267, 1, 4,15,2765029.9564656417, 1,20,15
205,201497190.85477618,16990.1082, 1, 2,60,154940.99764512265,14,19,15
541,8134855152.499499,519295.5520357495, 1, 4,15,5455379.259131312,17,20,15
697,43189840.07163056,348.65381568366765, 1, 3,15,27543.651439009733, 1, 8,15
746,0.0,0.0, 1, 1,15,0.0, 1, 1,15
785,2144310143.0902158,0.0, 1, 2,60,2188640.5912880797,17,16,60
4,243, 8
50,392525124.40407267,25324.201574456874, 1, 1,15,405187.22519131, 1,21,15
87,5315700039.692044,449081.24226129267, 1, 4,15,2765029.9564656417, 1,20,15
205,181617955.04713068,16990.1082, 1, 2,45,154940.99764512265, 6,17,15
541,7809885933.135065,519295.5520357495, 1, 4,15,5307439.545087924, 5,20,15
697,43189840.07163056,348.65381568366765, 1, 3,15,27543.651439009733, 1, 8,15
746,0.0,0.0, 1, 1,15,0.0, 1, 1,15
785,1839078680.6097,0.0, 1, 2,45,2125818.978256146, 6,17,15
4,273, 9
50,379863023.6168448,25324.201574456874, 1, 1,15,405187.22519131, 1,21,15
87,5144225844.863263,449081.24226129267, 1, 4,15,2765029.9564656417, 1,20,15
205,123374562.25866126,16990.1082, 1, 1,15,153017.42736601167, 2,18,15
541,6762044719.484309,519295.5520357495, 1, 4,15,4997600.364695894, 4,19,15
697,53885146.32424235,348.65381568366765, 1, 3,15,724812.2935262148,19, 5,60
746,0.0,0.0, 1, 1,15,0.0, 1, 1,15
785,1036030271.675496,0.0, 1, 1,15,2071422.0943611107, 2,18,15
4,304,10
50,392525124.40407267,25324.201574456874, 1, 1,15,405187.22519131, 1,21,15
87,5315700039.692044,449081.24226129267, 1, 4,15,2765029.9564656417, 1,20,15
205,68273932.32893516,16990.1082, 1, 1,15,95532.08990880924,18,17,15
541,6054479361.169839,519295.5520357495, 1, 4,15,3799863.526880316,18,20,15
697,372940928.1915589,348.65381568366765, 1, 3,15,3317127.2323134338,10, 5,60
746,0.0,0.0, 1, 1,15,0.0, 1, 1,15
785,196576255.31836806,0.0, 1, 1,15,1053171.5419494129,18,17,15
4,334,11
50,379863023.6168448,25324.201574456874, 1, 1,15,405187.22519131, 1,21,15
87,5144225844.863263,449081.24226129267, 1, 4,15,2765029.9564656417, 1,20,15
205,73091163.48914603,16990.1082, 1, 7,15,73882.44356636102,27, 4,60
541,5681086804.28042,519295.5520357495, 4, 4,15,3349375.1443693947, 4,20,15
697,2829403130.066213,348.65381568366765, 4, 3,15,6667715.361446988,27, 4,60
746,0.0,0.0, 1, 1,15,0.0, 1, 1,15
785,4899269.198409439,0.0, 1, 1,15,230511.7231615889, 4,17,15
4,365,12
50,392525124.40407267,25324.201574456874, 1, 1,15,405187.22519131, 1,21,15
87,5315700039.692044,449081.24226129267, 1, 4,15,2765029.9564656417, 1,20,15
205,114601773.32031793,16990.1082, 1,11,30,91328.18883724736,29, 4,45
541,5904621595.803421,523689.9603737973,10, 4,15,3256225.540522802,31,20,60
697,7548118276.726698,2091.922894102005,10, 1,15,8712229.450381702,29, 4,45
746,0.0,0.0, 1, 1,15,0.0, 1, 1,15
785,0.0,0.0, 1, 1,15,0.0, 1, 1,15
End of Data
 Number of Records Written=         140
