Program Version,EnergyPlus, Version 9.5.0-de239b2e5f, YMD=2024.05.15 09:36
1,5,Environment Title[],Latitude[deg],Longitude[deg],Time Zone[],Elevation[m]
2,8,Day of Simulation[],Month[],Day of Month[],DST Indicator[1=yes 0=no],Hour[],StartMinute[],EndMinute[],DayType
3,5,Cumulative Day of Simulation[],Month[],Day of Month[],DST Indicator[1=yes 0=no],DayType  ! When Daily Meters Requested
4,2,Cumulative Days of Simulation[],Month[]  ! When Monthly Meters Requested
5,1,Cumulative Days of Simulation[] ! When Run Period Meters Requested
6,1,Calendar Year of Simulation[] ! When Annual Meters Requested
51,9,InteriorLights:Electricity [J] !Monthly [Value,Min,Day,Hour,Minute,Max,Day,Hour,Minute]
88,9,InteriorEquipment:Electricity [J] !Monthly [Value,Min,Day,Hour,Minute,Max,Day,Hour,Minute]
206,9,Fans:Electricity [J] !Monthly [Value,Min,Day,Hour,Minute,Max,Day,Hour,Minute]
543,9,ElectricityNet:Facility [J] !Monthly [Value,Min,Day,Hour,Minute,Max,Day,Hour,Minute]
814,9,NaturalGas:Facility [J] !Monthly [Value,Min,Day,Hour,Minute,Max,Day,Hour,Minute]
End of Data Dictionary
1,GREAT FALLS INTL ARPT ANN HTG 99.6% CONDNS DB HVAC Sizing Pass 1,  47.47,-111.38,  -7.00,1117.00
4,1, 1
51,0.0,0.0,21, 1,15,0.0,21, 1,15
88,31956164.38356158,332876.71232876708,21, 1,15,332876.71232876708,21, 1,15
206,543683.4624000009,5663.3694,21, 1,15,5663.3694,21, 1,15
543,33417847.84596167,347540.0817287671,21, 9,15,348440.0817287671,21, 1,30
814,0.0,0.0,21, 1,15,0.0,21, 1,15
1,GREAT FALLS INTL ARPT ANN HTG 99% CONDNS DB HVAC Sizing Pass 1,  47.47,-111.38,  -7.00,1117.00
4,1, 1
51,0.0,0.0,21, 1,15,0.0,21, 1,15
88,31956164.38356158,332876.71232876708,21, 1,15,332876.71232876708,21, 1,15
206,543683.4624000009,5663.3694,21, 1,15,5663.3694,21, 1,15
543,33417847.84596167,347540.0817287671,21, 9,15,348440.0817287671,21, 1,30
814,0.0,0.0,21, 1,15,0.0,21, 1,15
1,GREAT FALLS INTL ARPT ANN CLG .4% CONDNS DB=>MWB HVAC Sizing Pass 1,  47.47,-111.38,  -7.00,1117.00
4,1, 7
51,0.0,0.0,21, 1,15,0.0,21, 1,15
88,103805315.74356179,1081305.372328767,21, 1,15,1081305.372328767,21, 1,15
206,543683.4624000009,5663.3694,21, 1,15,5663.3694,21, 1,15
543,105225525.41758438,1095330.8431001378,21,13,30,1096868.741728767,21, 1,15
814,0.0,0.0,21, 1,15,0.0,21, 1,15
1,GREAT FALLS INTL ARPT ANN CLG 1% CONDNS DB=>MWB HVAC Sizing Pass 1,  47.47,-111.38,  -7.00,1117.00
4,1, 7
51,0.0,0.0,21, 1,15,0.0,21, 1,15
88,103805315.74356179,1081305.372328767,21, 1,15,1081305.372328767,21, 1,15
206,543683.4624000009,5663.3694,21, 1,15,5663.3694,21, 1,15
543,105225336.6864888,1095324.3244969955,21,13,30,1096868.741728767,21, 1,15
814,0.0,0.0,21, 1,15,0.0,21, 1,15
1,GREAT FALLS INTL ARPT ANN HTG 99.6% CONDNS DB,  47.47,-111.38,  -7.00,1117.00
4,1, 1
51,0.0,0.0,21, 1,15,0.0,21, 1,15
88,31956164.38356158,332876.71232876708,21, 1,15,332876.71232876708,21, 1,15
206,543683.4624000009,5663.3694,21, 1,15,5663.3694,21, 1,15
543,33417847.84596167,347540.0817287671,21, 9,15,348440.0817287671,21, 1,30
814,0.0,0.0,21, 1,15,0.0,21, 1,15
1,GREAT FALLS INTL ARPT ANN HTG 99% CONDNS DB,  47.47,-111.38,  -7.00,1117.00
4,1, 1
51,0.0,0.0,21, 1,15,0.0,21, 1,15
88,31956164.38356158,332876.71232876708,21, 1,15,332876.71232876708,21, 1,15
206,543683.4624000009,5663.3694,21, 1,15,5663.3694,21, 1,15
543,33417847.84596167,347540.0817287671,21, 9,15,348440.0817287671,21, 1,30
814,0.0,0.0,21, 1,15,0.0,21, 1,15
1,GREAT FALLS INTL ARPT ANN CLG .4% CONDNS DB=>MWB,  47.47,-111.38,  -7.00,1117.00
4,1, 7
51,0.0,0.0,21, 1,15,0.0,21, 1,15
88,103805315.74356179,1081305.372328767,21, 1,15,1081305.372328767,21, 1,15
206,543683.4624000009,5663.3694,21, 1,15,5663.3694,21, 1,15
543,105225525.41758438,1095330.8431001378,21,13,30,1096868.741728767,21, 1,15
814,0.0,0.0,21, 1,15,0.0,21, 1,15
1,GREAT FALLS INTL ARPT ANN CLG 1% CONDNS DB=>MWB,  47.47,-111.38,  -7.00,1117.00
4,1, 7
51,0.0,0.0,21, 1,15,0.0,21, 1,15
88,103805315.74356179,1081305.372328767,21, 1,15,1081305.372328767,21, 1,15
206,543683.4624000009,5663.3694,21, 1,15,5663.3694,21, 1,15
543,105225336.6864888,1095324.3244969955,21,13,30,1096868.741728767,21, 1,15
814,0.0,0.0,21, 1,15,0.0,21, 1,15
1,ANNUAL,  47.47,-111.38,  -7.00,1117.00
4,31, 1
51,0.0,0.0, 1, 1,15,0.0, 1, 1,15
88,990641095.890461,332876.71232876708, 1, 1,15,332876.71232876708, 1, 1,15
206,16854187.334400488,5663.3694, 1, 1,15,5663.3694, 1, 1,15
543,1035648439.3381344,346583.4291250528,27,13,30,349120.52668406048,30, 3,60
814,1258322.6113432986,0.0, 1, 1,15,419441.6252913795,29,16,15
4,59, 2
51,0.0,0.0, 1, 1,15,0.0, 1, 1,15
88,894772602.739769,332876.71232876708, 1, 1,15,332876.71232876708, 1, 1,15
206,15223136.947200455,5663.3694, 1, 1,15,5663.3694, 1, 1,15
543,935194966.7888608,346666.63124174947,10,13,30,349120.5284678345, 4, 3,60
814,2936083.843629504,0.0, 1, 1,15,419441.6951556652, 4, 3,60
4,90, 3
51,0.0,0.0, 1, 1,15,0.0, 1, 1,15
88,990641095.890461,332876.71232876708, 1, 1,15,332876.71232876708, 1, 1,15
206,16854187.334400488,5663.3694, 1, 1,15,5663.3694, 1, 1,15
543,1035193566.4318651,346582.5726296415,16,13,30,348440.0817287671, 1, 1,15
814,0.0,0.0, 1, 1,15,0.0, 1, 1,15
4,120, 4
51,0.0,0.0, 1, 1,15,0.0, 1, 1,15
88,958684931.506897,332876.71232876708, 1, 1,15,332876.71232876708, 1, 1,15
206,16310503.872000494,5663.3694, 1, 1,15,5663.3694, 1, 1,15
543,1001640056.0771347,346731.40709894159, 2,13,30,348440.0817287671, 1, 1,15
814,0.0,0.0, 1, 1,15,0.0, 1, 1,15
4,151, 5
51,0.0,0.0, 1, 1,15,0.0, 1, 1,15
88,990641095.890461,332876.71232876708, 1, 1,15,332876.71232876708, 1, 1,15
206,16854187.334400488,5663.3694, 1, 1,15,5663.3694, 1, 1,15
543,1034850394.2500341,346798.7016010404, 1,13,30,348440.0817287671, 1, 1,15
814,0.0,0.0, 1, 1,15,0.0, 1, 1,15
4,181, 6
51,0.0,0.0, 1, 1,15,0.0, 1, 1,15
88,958684931.506897,332876.71232876708, 1, 1,15,332876.71232876708, 1, 1,15
206,16310503.872000494,5663.3694, 1, 1,15,5663.3694, 1, 1,15
543,1001360472.0339486,346900.9850035701,19,13,45,348440.0817287671, 1, 1,15
814,0.0,0.0, 1, 1,15,0.0, 1, 1,15
4,212, 7
51,0.0,0.0, 1, 1,15,0.0, 1, 1,15
88,990641095.890461,332876.71232876708, 1, 1,15,332876.71232876708, 1, 1,15
206,16854187.334400488,5663.369399999998,20, 1,45,5663.369400000001,20, 2,15
543,1034749937.6832756,346894.1370597577, 8,13,30,348440.0817287672,20, 1,30
814,0.0,0.0, 1, 1,15,0.0, 1, 1,15
4,243, 8
51,0.0,0.0, 1, 1,15,0.0, 1, 1,15
88,990641095.890461,332876.71232876708, 1, 1,15,332876.71232876708, 1, 1,15
206,16854187.334400488,5663.3694, 1, 1,15,5663.3694, 1, 1,15
543,1034891416.607003,346828.18131922979,18,14,15,348440.0817287671, 1, 1,15
814,0.0,0.0, 1, 1,15,0.0, 1, 1,15
4,273, 9
51,0.0,0.0, 1, 1,15,0.0, 1, 1,15
88,958684931.506897,332876.71232876708, 1, 1,15,332876.71232876708, 1, 1,15
206,16310503.872000494,5663.3694, 1, 1,15,5663.3694, 1, 1,15
543,1001706452.4489849,346760.17630532899,16,13,30,348440.0817287671, 1, 1,15
814,0.0,0.0, 1, 1,15,0.0, 1, 1,15
4,304,10
51,0.0,0.0, 1, 1,15,0.0, 1, 1,15
88,990641095.890461,332876.71232876708, 1, 1,15,332876.71232876708, 1, 1,15
206,16854187.334400488,5663.3694, 1, 1,15,5663.3694, 1, 1,15
543,1035331292.6512975,346702.1782971781,10,13,15,348440.0817287671, 1, 1,15
814,0.0,0.0, 1, 1,15,0.0, 1, 1,15
4,334,11
51,0.0,0.0, 1, 1,15,0.0, 1, 1,15
88,958684931.506897,332876.71232876708, 1, 1,15,332876.71232876708, 1, 1,15
206,16310503.872000494,5663.3694, 1, 1,15,5663.3694, 1, 1,15
543,1002162938.4916715,346743.40653872847,13,12,60,348440.0817287671, 1, 1,15
814,0.0,0.0, 1, 1,15,0.0, 1, 1,15
4,365,12
51,0.0,0.0, 1, 1,15,0.0, 1, 1,15
88,990641095.890461,332876.71232876708, 1, 1,15,332876.71232876708, 1, 1,15
206,16854187.334400488,5663.3694, 1, 1,15,5663.3694, 1, 1,15
543,1035723982.9432813,346750.79901519618,17,13,30,349120.52841656006,30,22,45
814,1258319.6526970564,0.0, 1, 1,15,419441.66354902568,30,22,45
End of Data
 Number of Records Written=         100
