Program Version,EnergyPlus, Version 9.5.0-de239b2e5f, YMD=2024.06.10 15:47
1,5,Environment Title[],Latitude[deg],Longitude[deg],Time Zone[],Elevation[m]
2,8,Day of Simulation[],Month[],Day of Month[],DST Indicator[1=yes 0=no],Hour[],StartMinute[],EndMinute[],DayType
3,5,Cumulative Day of Simulation[],Month[],Day of Month[],DST Indicator[1=yes 0=no],DayType  ! When Daily Meters Requested
4,2,Cumulative Days of Simulation[],Month[]  ! When Monthly Meters Requested
5,1,Cumulative Days of Simulation[] ! When Run Period Meters Requested
6,1,Calendar Year of Simulation[] ! When Annual Meters Requested
51,9,InteriorLights:Electricity [J] !Monthly [Value,Min,Day,Hour,Minute,Max,Day,Hour,Minute]
88,9,InteriorEquipment:Electricity [J] !Monthly [Value,Min,Day,Hour,Minute,Max,Day,Hour,Minute]
206,9,Fans:Electricity [J] !Monthly [Value,Min,Day,Hour,Minute,Max,Day,Hour,Minute]
727,9,Heating:Electricity [J] !Monthly [Value,Min,Day,Hour,Minute,Max,Day,Hour,Minute]
689,9,Cooling:Electricity [J] !Monthly [Value,Min,Day,Hour,Minute,Max,Day,Hour,Minute]
543,9,ElectricityNet:Facility [J] !Monthly [Value,Min,Day,Hour,Minute,Max,Day,Hour,Minute]
End of Data Dictionary
1,GREAT FALLS INTL ARPT ANN HTG 99.6% CONDNS DB HVAC Sizing Pass 1,  47.47,-111.38,  -7.00,1117.00
4,1, 1
51,0.0,0.0,21, 1,15,0.0,21, 1,15
88,3550684.931506854,36986.30136986301,21, 1,15,36986.30136986301,21, 1,15
206,14668038.477443206,152792.0674733665,21, 1,15,152792.0674733665,21, 1,15
543,691781479.6912807,6036442.870602854,21, 1,15,7702628.293105784,21,24,60
689,0.0,0.0,21, 1,15,0.0,21, 1,15
727,672644756.282331,5836764.501759624,21, 1,15,7502949.924262554,21,24,60
1,GREAT FALLS INTL ARPT ANN HTG 99% CONDNS DB HVAC Sizing Pass 1,  47.47,-111.38,  -7.00,1117.00
4,1, 1
51,0.0,0.0,21, 1,15,0.0,21, 1,15
88,3550684.931506854,36986.30136986301,21, 1,15,36986.30136986301,21, 1,15
206,14668038.477443206,152792.0674733665,21, 1,15,152792.0674733665,21, 1,15
543,620916494.6890034,5308461.818910976,21, 1,15,6956047.781844137,21,24,60
689,0.0,0.0,21, 1,15,0.0,21, 1,15
727,601779771.2800535,5108783.450067746,21, 1,15,6756369.413000907,21,24,60
1,GREAT FALLS INTL ARPT ANN CLG .4% CONDNS DB=>MWB HVAC Sizing Pass 1,  47.47,-111.38,  -7.00,1117.00
4,1, 7
51,0.0,0.0,21, 1,15,0.0,21, 1,15
88,75399836.29150689,785414.9613698631,21, 1,15,785414.9613698631,21, 1,15
206,543683.4624000009,5663.3694,21, 1,15,5663.3694,21, 1,15
543,76820045.96552962,799440.4321412338,21,13,30,800978.3307698631,21, 1,15
689,0.0,0.0,21, 1,15,0.0,21, 1,15
727,0.0,0.0,21, 1,15,0.0,21, 1,15
1,GREAT FALLS INTL ARPT ANN CLG 1% CONDNS DB=>MWB HVAC Sizing Pass 1,  47.47,-111.38,  -7.00,1117.00
4,1, 7
51,0.0,0.0,21, 1,15,0.0,21, 1,15
88,75399836.29150689,785414.9613698631,21, 1,15,785414.9613698631,21, 1,15
206,543683.4624000009,5663.3694,21, 1,15,5663.3694,21, 1,15
543,76819857.23443406,799433.9135380916,21,13,30,800978.3307698631,21, 1,15
689,0.0,0.0,21, 1,15,0.0,21, 1,15
727,0.0,0.0,21, 1,15,0.0,21, 1,15
1,GREAT FALLS INTL ARPT ANN HTG 99.6% CONDNS DB,  47.47,-111.38,  -7.00,1117.00
4,1, 1
51,0.0,0.0,21, 1,15,0.0,21, 1,15
88,3550684.931506854,36986.30136986301,21, 1,15,36986.30136986301,21, 1,15
206,14668038.477443206,152792.0674733665,21, 1,15,152792.0674733665,21, 1,15
543,692003908.4043889,6039075.553932439,21, 1,15,7704849.277147165,21,24,60
689,0.0,0.0,21, 1,15,0.0,21, 1,15
727,672867184.9954382,5839397.185089208,21, 1,15,7505170.908303934,21,24,60
1,GREAT FALLS INTL ARPT ANN HTG 99% CONDNS DB,  47.47,-111.38,  -7.00,1117.00
4,1, 1
51,0.0,0.0,21, 1,15,0.0,21, 1,15
88,3550684.931506854,36986.30136986301,21, 1,15,36986.30136986301,21, 1,15
206,14668038.477443206,152792.0674733665,21, 1,15,152792.0674733665,21, 1,15
543,620916327.3214945,5308459.835227463,21, 1,15,6956046.157246771,21,24,60
689,0.0,0.0,21, 1,15,0.0,21, 1,15
727,601779603.9125444,5108781.466384233,21, 1,15,6756367.788403541,21,24,60
1,GREAT FALLS INTL ARPT ANN CLG .4% CONDNS DB=>MWB,  47.47,-111.38,  -7.00,1117.00
4,1, 7
51,0.0,0.0,21, 1,15,0.0,21, 1,15
88,75399836.29150689,785414.9613698631,21, 1,15,785414.9613698631,21, 1,15
206,543683.4624000009,5663.3694,21, 1,15,5663.3694,21, 1,15
543,76820045.96552962,799440.4321412338,21,13,30,800978.3307698631,21, 1,15
689,0.0,0.0,21, 1,15,0.0,21, 1,15
727,0.0,0.0,21, 1,15,0.0,21, 1,15
1,GREAT FALLS INTL ARPT ANN CLG 1% CONDNS DB=>MWB,  47.47,-111.38,  -7.00,1117.00
4,1, 7
51,0.0,0.0,21, 1,15,0.0,21, 1,15
88,75399836.29150689,785414.9613698631,21, 1,15,785414.9613698631,21, 1,15
206,543683.4624000009,5663.3694,21, 1,15,5663.3694,21, 1,15
543,76819857.23443406,799433.9135380916,21,13,30,800978.3307698631,21, 1,15
689,0.0,0.0,21, 1,15,0.0,21, 1,15
727,0.0,0.0,21, 1,15,0.0,21, 1,15
1,ANNUAL,  47.47,-111.38,  -7.00,1117.00
4,31, 1
51,0.0,0.0, 1, 1,15,0.0, 1, 1,15
88,110071232.87670824,36986.30136986301, 1, 1,15,36986.30136986301, 1, 1,15
206,256141968.43217237,5663.3694, 1,12,30,152792.06747336655,13, 1,15
543,9023339928.325875,50763.500402022764, 6,13,30,14758276.890243812,13, 1,45
689,0.0,0.0, 1, 1,15,0.0, 1, 1,15
727,8628975612.239893,0.0, 1,12,30,14558598.521400586,13, 1,45
4,59, 2
51,0.0,0.0, 1, 1,15,0.0, 1, 1,15
88,99419178.08218834,36986.30136986301, 1, 1,15,36986.30136986301, 1, 1,15
206,238874718.22506828,5663.3694,12,15,30,152792.0674733665, 1, 1,15
543,7580668028.692516,50836.85268992781,25,13,30,7756478.249437836, 1, 8,45
689,0.0,0.0, 1, 1,15,0.0, 1, 1,15
727,7217179668.397459,0.0,12,15,30,7556799.880594606, 1, 8,45
4,90, 3
51,0.0,0.0, 1, 1,15,0.0, 1, 1,15
88,110071232.87670824,36986.30136986301, 1, 1,15,36986.30136986301, 1, 1,15
206,225589657.25351907,5663.3694, 1,13,60,152792.0674733665, 1, 1,15
543,6362638420.261257,50693.67969519941,16,13,45,7394962.505746413, 5, 2,45
689,0.0,0.0, 1, 1,15,0.0, 1, 1,15
727,5999279246.923978,0.0, 1,13,60,7195284.136903184, 5, 2,45
4,120, 4
51,0.0,0.0, 1, 1,15,0.0, 1, 1,15
88,106520547.9452016,36986.30136986301, 1, 1,15,36986.30136986301, 1, 1,15
206,103861971.93924496,5663.3694, 1,13,45,152792.0674733665, 4, 6,60
543,2809478077.7143666,50840.996140037445, 2,13,30,4554954.370738534,29, 5,60
689,0.0,0.0, 1, 1,15,0.0, 1, 1,15
727,2572450937.1316487,0.0, 1,13,45,4355276.001895304,29, 5,60
4,151, 5
51,0.0,0.0, 1, 1,15,0.0, 1, 1,15
88,110071232.87670824,36986.30136986301, 1, 1,15,36986.30136986301, 1, 1,15
206,85434903.29855968,5663.3694, 1,11,45,152792.0674733665, 1, 1,15
543,1835024983.7186008,50908.29064213627, 1,13,30,3739099.576553531, 9, 5,60
689,19276995.77385528,0.0, 1, 1,15,515279.8781254629,19,18,30
727,1592886740.744247,0.0, 1,11,45,3539421.207710301, 9, 5,60
4,181, 6
51,0.0,0.0, 1, 1,15,0.0, 1, 1,15
88,106520547.9452016,36986.30136986301, 1, 1,15,36986.30136986301, 1, 1,15
206,34662879.79690691,5663.3694, 1, 1,15,30409.732890362015,17, 4,60
543,618891516.9184836,51019.61347364474, 6,13,30,2006971.0255010189,17, 4,60
689,324796309.92772,0.0, 1, 1,15,1003218.4045485343,29,16,60
727,126546742.59356815,0.0, 1, 1,15,1929674.9912407939,17, 4,60
4,212, 7
51,0.0,0.0, 1, 1,15,0.0, 1, 1,15
88,110071232.87670824,36986.30136986301, 1, 1,15,36986.30136986301, 1, 1,15
206,38633337.545308958,5663.369399999998,21, 3,30,55006.91612884922,17,17,30
543,785702813.6638852,51003.72610085364, 8,13,30,1780626.598257678,17,17,15
689,609489944.7556572,0.0, 1, 1,15,1680097.8375691013,17,17,15
727,253644.02778553655,0.0, 1, 1,15,253644.02778553655,27, 1,15
4,243, 8
51,0.0,0.0, 1, 1,15,0.0, 1, 1,15
88,110071232.87670824,36986.30136986301, 1, 1,15,36986.30136986301, 1, 1,15
206,41808940.40742379,5663.3694, 1, 1,15,41672.43392295772, 6,17,15
543,845749158.2367843,50937.770360325696,18,14,15,1576146.7029417549, 6,17,15
689,657469861.2282901,0.0, 1, 1,15,1488794.8855443823, 6,17,15
727,9002990.342219888,0.0, 1, 1,15,429603.47390680518,18, 6,15
4,273, 9
51,0.0,0.0, 1, 1,15,0.0, 1, 1,15
88,106520547.9452016,36986.30136986301, 1, 1,15,36986.30136986301, 1, 1,15
206,37720067.80523873,5663.3694, 1, 1,15,152792.0674733665,17, 3,60
543,842541342.7092711,50869.76534642487,16,13,30,1993205.1046502772,19, 6,60
689,256438505.2758179,0.0, 1, 1,15,1414277.536933238, 2,17,45
727,415151204.61291787,0.0, 1, 1,15,1916488.1780572816,19, 6,60
4,304,10
51,0.0,0.0, 1, 1,15,0.0, 1, 1,15
88,110071232.87670824,36986.30136986301, 1, 1,15,36986.30136986301, 1, 1,15
206,82697797.61933166,5663.3694, 1, 1,15,152792.0674733665, 4, 2,15
543,1981014843.6234725,50835.71458004532,11,13,30,3934732.588279302,10, 7,45
689,204640.4996183634,0.0, 1, 1,15,56358.426943663384,18,17,45
727,1760205163.2013379,0.0, 1, 1,15,3735954.219436072,10, 7,45
4,334,11
51,0.0,0.0, 1, 1,15,0.0, 1, 1,15
88,106520547.9452016,36986.30136986301, 1, 1,15,36986.30136986301, 1, 1,15
206,199440735.52890183,5663.3694, 1,12,30,152792.0674733665, 2, 4,30
543,5210048584.550804,50880.769982650134, 3,13,15,6231302.435967842,27, 5,60
689,0.0,0.0, 1, 1,15,0.0, 1, 1,15
727,4876919797.963898,0.0, 1,12,30,6031624.067124613,27, 5,60
4,365,12
51,0.0,0.0, 1, 1,15,0.0, 1, 1,15
88,110071232.87670824,36986.30136986301, 1, 1,15,36986.30136986301, 1, 1,15
206,323707251.82198646,5663.3694, 6,14,60,152792.0674733665, 1, 1,15
543,9890154939.891919,51081.72527289175, 6,15,30,8444649.283027063,31, 9,15
689,0.0,0.0, 1, 1,15,0.0, 1, 1,15
727,9428149796.806145,0.0, 6,14,60,8244970.914183835,31, 9,15
End of Data
 Number of Records Written=         120
