Program Version,EnergyPlus, Version 9.5.0-de239b2e5f, YMD=2024.06.10 15:46
1,5,Environment Title[],Latitude[deg],Longitude[deg],Time Zone[],Elevation[m]
2,8,Day of Simulation[],Month[],Day of Month[],DST Indicator[1=yes 0=no],Hour[],StartMinute[],EndMinute[],DayType
3,5,Cumulative Day of Simulation[],Month[],Day of Month[],DST Indicator[1=yes 0=no],DayType  ! When Daily Meters Requested
4,2,Cumulative Days of Simulation[],Month[]  ! When Monthly Meters Requested
5,1,Cumulative Days of Simulation[] ! When Run Period Meters Requested
6,1,Calendar Year of Simulation[] ! When Annual Meters Requested
51,9,InteriorLights:Electricity [J] !Monthly [Value,Min,Day,Hour,Minute,Max,Day,Hour,Minute]
88,9,InteriorEquipment:Electricity [J] !Monthly [Value,Min,Day,Hour,Minute,Max,Day,Hour,Minute]
206,9,Fans:Electricity [J] !Monthly [Value,Min,Day,Hour,Minute,Max,Day,Hour,Minute]
752,9,Heating:Electricity [J] !Monthly [Value,Min,Day,Hour,Minute,Max,Day,Hour,Minute]
791,9,Cooling:Electricity [J] !Monthly [Value,Min,Day,Hour,Minute,Max,Day,Hour,Minute]
543,9,ElectricityNet:Facility [J] !Monthly [Value,Min,Day,Hour,Minute,Max,Day,Hour,Minute]
703,9,NaturalGas:Facility [J] !Monthly [Value,Min,Day,Hour,Minute,Max,Day,Hour,Minute]
End of Data Dictionary
1,GREAT FALLS INTL ARPT ANN HTG 99.6% CONDNS DB HVAC Sizing Pass 1,  47.47,-111.38,  -7.00,1117.00
4,1, 1
51,0.0,0.0,21, 1,15,0.0,21, 1,15
88,3550684.931506854,36986.30136986301,21, 1,15,36986.30136986301,21, 1,15
206,10757230.701051509,100500.4450480369,21, 1,15,116952.34562707585,21,24,60
543,15225915.632558352,147386.7464178999,21, 1,15,163838.64699693887,21,24,60
703,1280104208.5293699,11886305.200826472,21, 1,15,13948286.86864858,21,24,60
752,0.0,0.0,21, 1,15,0.0,21, 1,15
791,0.0,0.0,21, 1,15,0.0,21, 1,15
1,GREAT FALLS INTL ARPT ANN HTG 99% CONDNS DB HVAC Sizing Pass 1,  47.47,-111.38,  -7.00,1117.00
4,1, 1
51,0.0,0.0,21, 1,15,0.0,21, 1,15
88,3550684.931506854,36986.30136986301,21, 1,15,36986.30136986301,21, 1,15
206,9501845.890760139,87524.17993307751,21, 1,15,103792.47749006884,21,24,60
543,13970530.822266989,134410.48130294053,21, 1,15,150678.77885993184,21,24,60
703,1122761872.764151,10259938.65093763,21, 1,15,12298908.626961573,21,24,60
752,0.0,0.0,21, 1,15,0.0,21, 1,15
791,0.0,0.0,21, 1,15,0.0,21, 1,15
1,GREAT FALLS INTL ARPT ANN CLG .4% CONDNS DB=>MWB HVAC Sizing Pass 1,  47.47,-111.38,  -7.00,1117.00
4,1, 7
51,0.0,0.0,21, 1,15,0.0,21, 1,15
88,75399836.29150689,785414.9613698631,21, 1,15,785414.9613698631,21, 1,15
206,543683.4624000009,5663.3694,21, 1,15,5663.3694,21, 1,15
543,76820045.96552962,799440.4321412338,21,13,30,800978.3307698631,21, 1,15
703,0.0,0.0,21, 1,15,0.0,21, 1,15
752,0.0,0.0,21, 1,15,0.0,21, 1,15
791,0.0,0.0,21, 1,15,0.0,21, 1,15
1,GREAT FALLS INTL ARPT ANN CLG 1% CONDNS DB=>MWB HVAC Sizing Pass 1,  47.47,-111.38,  -7.00,1117.00
4,1, 7
51,0.0,0.0,21, 1,15,0.0,21, 1,15
88,75399836.29150689,785414.9613698631,21, 1,15,785414.9613698631,21, 1,15
206,543683.4624000009,5663.3694,21, 1,15,5663.3694,21, 1,15
543,76819857.23443406,799433.9135380916,21,13,30,800978.3307698631,21, 1,15
703,0.0,0.0,21, 1,15,0.0,21, 1,15
752,0.0,0.0,21, 1,15,0.0,21, 1,15
791,0.0,0.0,21, 1,15,0.0,21, 1,15
1,GREAT FALLS INTL ARPT ANN HTG 99.6% CONDNS DB,  47.47,-111.38,  -7.00,1117.00
4,1, 1
51,0.0,0.0,21, 1,15,0.0,21, 1,15
88,3550684.931506854,36986.30136986301,21, 1,15,36986.30136986301,21, 1,15
206,10759426.593103487,100526.45727917673,21, 1,15,116974.10177119379,21,24,60
543,15228111.524610335,147412.75864903976,21, 1,15,163860.4031410568,21,24,60
703,1280379428.3517819,11889565.416477049,21, 1,15,13951013.652105496,21,24,60
752,0.0,0.0,21, 1,15,0.0,21, 1,15
791,0.0,0.0,21, 1,15,0.0,21, 1,15
1,GREAT FALLS INTL ARPT ANN HTG 99% CONDNS DB,  47.47,-111.38,  -7.00,1117.00
4,1, 1
51,0.0,0.0,21, 1,15,0.0,21, 1,15
88,3550684.931506854,36986.30136986301,21, 1,15,36986.30136986301,21, 1,15
206,9501844.237804972,87524.16033074928,21, 1,15,103792.46146028156,21,24,60
543,13970529.169311809,134410.46170061228,21, 1,15,150678.76283014456,21,24,60
703,1122761665.5927525,10259936.194100423,21, 1,15,12298906.61788503,21,24,60
752,0.0,0.0,21, 1,15,0.0,21, 1,15
791,0.0,0.0,21, 1,15,0.0,21, 1,15
1,GREAT FALLS INTL ARPT ANN CLG .4% CONDNS DB=>MWB,  47.47,-111.38,  -7.00,1117.00
4,1, 7
51,0.0,0.0,21, 1,15,0.0,21, 1,15
88,75399836.29150689,785414.9613698631,21, 1,15,785414.9613698631,21, 1,15
206,543683.4624000009,5663.3694,21, 1,15,5663.3694,21, 1,15
543,76820045.96552962,799440.4321412338,21,13,30,800978.3307698631,21, 1,15
703,0.0,0.0,21, 1,15,0.0,21, 1,15
752,0.0,0.0,21, 1,15,0.0,21, 1,15
791,0.0,0.0,21, 1,15,0.0,21, 1,15
1,GREAT FALLS INTL ARPT ANN CLG 1% CONDNS DB=>MWB,  47.47,-111.38,  -7.00,1117.00
4,1, 7
51,0.0,0.0,21, 1,15,0.0,21, 1,15
88,75399836.29150689,785414.9613698631,21, 1,15,785414.9613698631,21, 1,15
206,543683.4624000009,5663.3694,21, 1,15,5663.3694,21, 1,15
543,76819857.23443406,799433.9135380916,21,13,30,800978.3307698631,21, 1,15
703,0.0,0.0,21, 1,15,0.0,21, 1,15
752,0.0,0.0,21, 1,15,0.0,21, 1,15
791,0.0,0.0,21, 1,15,0.0,21, 1,15
1,ANNUAL,  47.47,-111.38,  -7.00,1117.00
4,31, 1
51,0.0,0.0, 1, 1,15,0.0, 1, 1,15
88,110071232.87670824,36986.30136986301, 1, 1,15,36986.30136986301, 1, 1,15
206,154840333.08329747,5663.3694, 1,14,15,225452.57206169013,13, 1,45
543,293064041.55151346,50763.500402022764, 6,13,30,272338.87343155316,13, 1,45
703,17295187386.102575,0.0, 1,14,15,27547048.713086595,13, 1,30
752,0.0,0.0, 1, 1,15,0.0, 1, 1,15
791,0.0,0.0, 1, 1,15,0.0, 1, 1,15
4,59, 2
51,0.0,0.0, 1, 1,15,0.0, 1, 1,15
88,99419178.08218834,36986.30136986301, 1, 1,15,36986.30136986301, 1, 1,15
206,132113956.1911922,5663.3694,12,16,45,111659.87314655946, 1, 8,15
543,256727598.26113645,50836.85268992781,25,13,30,158546.17451642248, 1, 8,15
703,14650387975.53331,0.0,12,16,45,13284960.392789506, 1, 8,15
752,0.0,0.0, 1, 1,15,0.0, 1, 1,15
791,0.0,0.0, 1, 1,15,0.0, 1, 1,15
4,90, 3
51,0.0,0.0, 1, 1,15,0.0, 1, 1,15
88,110071232.87670824,36986.30136986301, 1, 1,15,36986.30136986301, 1, 1,15
206,115666247.94008838,5663.3694, 1,15,15,110665.25324186715, 4,24,60
543,253435764.02382878,50789.51599570355,18,13,30,157551.55461173017, 4,24,60
703,12384505762.711146,0.0, 1,15,15,13160300.752398808, 4,24,60
752,0.0,0.0, 1, 1,15,0.0, 1, 1,15
791,0.0,0.0, 1, 1,15,0.0, 1, 1,15
4,120, 4
51,0.0,0.0, 1, 1,15,0.0, 1, 1,15
88,106520547.9452016,36986.30136986301, 1, 1,15,36986.30136986301, 1, 1,15
206,65177034.04788641,5663.3694, 1,14,15,67320.37657829543,29, 5,60
543,198342202.69135527,50840.996140037445, 2,13,30,114206.67794815844,29, 5,60
703,6124635199.967855,0.0, 1,14,15,7727716.19203695,29, 5,60
752,0.0,0.0, 1, 1,15,0.0, 1, 1,15
791,0.0,0.0, 1, 1,15,0.0, 1, 1,15
4,151, 5
51,0.0,0.0, 1, 1,15,0.0, 1, 1,15
88,110071232.87670824,36986.30136986301, 1, 1,15,36986.30136986301, 1, 1,15
206,49312306.052125107,5663.3694, 1,13,45,58176.505021563615,22, 6,30
543,200698083.46295429,50909.616241958975, 1,13,45,535023.4688166068,19,18,30
703,3945239916.51454,0.0, 1,13,45,6581678.660852064,22, 6,30
752,0.0,0.0, 1, 1,15,0.0, 1, 1,15
791,13959433.508914924,0.0, 1, 1,15,451384.0309302665,19,18,30
4,181, 6
51,0.0,0.0, 1, 1,15,0.0, 1, 1,15
88,106520547.9452016,36986.30136986301, 1, 1,15,36986.30136986301, 1, 1,15
206,39608295.40951537,5663.3694, 1, 1,15,80471.46042195441,29,16,45
543,445735046.9920551,51010.574044666006,19,13,45,1214743.2133247515,29,16,15
703,537536567.4812594,0.0, 1, 1,15,3735353.073888435,17, 4,60
752,0.0,0.0, 1, 1,15,0.0, 1, 1,15
791,273241166.98224869,0.0, 1, 1,15,1088822.6956374222,29,16,15
4,212, 7
51,0.0,0.0, 1, 1,15,0.0, 1, 1,15
88,110071232.87670824,36986.30136986301, 1, 1,15,36986.30136986301, 1, 1,15
206,55256032.567625809,5663.369399999998,21, 3,30,122759.02868131042,17,17,15
543,756932784.4140549,51003.72610085364, 8,13,30,2024655.3825840534,17,16,60
703,14053651.664574324,0.0, 1, 1,15,2504277.155735145,27, 1,15
752,0.0,0.0, 1, 1,15,0.0, 1, 1,15
791,564350864.5112963,0.0, 1, 1,15,1856395.694369166,17,16,60
4,243, 8
51,0.0,0.0, 1, 1,15,0.0, 1, 1,15
88,110071232.87670824,36986.30136986301, 1, 1,15,36986.30136986301, 1, 1,15
206,58668926.71164522,5663.3694, 1, 1,15,114028.91215796003, 6,17,15
543,788288871.1989791,50937.770360325696,18,14,15,1816408.5562934734, 6,17,15
703,112832123.05104919,0.0, 1, 1,15,2226776.630707605,18, 6,15
752,0.0,0.0, 1, 1,15,0.0, 1, 1,15
791,592152578.2284895,0.0, 1, 1,15,1656700.2606610987, 6,17,15
4,273, 9
51,0.0,0.0, 1, 1,15,0.0, 1, 1,15
88,106520547.9452016,36986.30136986301, 1, 1,15,36986.30136986301, 1, 1,15
206,44098875.114193338,5663.3694, 1, 1,15,105581.32733277367, 2,17,45
543,408796965.003851,50869.76534642487,16,13,30,1672994.4551395223, 2,17,60
703,1500959937.1964653,0.0, 1, 1,15,4275990.304422607,17, 6,30
752,0.0,0.0, 1, 1,15,0.0, 1, 1,15
791,231466524.87433905,0.0, 1, 1,15,1521688.520003084, 2,17,60
4,304,10
51,0.0,0.0, 1, 1,15,0.0, 1, 1,15
88,110071232.87670824,36986.30136986301, 1, 1,15,36986.30136986301, 1, 1,15
206,54712204.0819559,5663.3694, 1, 1,15,58181.54970100514,10, 7,45
543,192619446.38512153,50835.71458004532,11,13,30,104996.96891060737,10, 7,30
703,4744894739.579214,0.0, 1, 1,15,6582310.930447818,10, 7,45
752,0.0,0.0, 1, 1,15,0.0, 1, 1,15
791,0.0,0.0, 1, 1,15,0.0, 1, 1,15
4,334,11
51,0.0,0.0, 1, 1,15,0.0, 1, 1,15
88,106520547.9452016,36986.30136986301, 1, 1,15,36986.30136986301, 1, 1,15
206,100332387.00457302,5663.3694, 1,14,60,93849.77830989605,27, 5,60
543,234020438.06256689,50880.769982650134, 3,13,15,140736.07967975908,27, 5,60
703,10530794413.86812,0.0, 1,14,60,11052750.875175314,27, 5,60
752,0.0,0.0, 1, 1,15,0.0, 1, 1,15
791,0.0,0.0, 1, 1,15,0.0, 1, 1,15
4,365,12
51,0.0,0.0, 1, 1,15,0.0, 1, 1,15
88,110071232.87670824,36986.30136986301, 1, 1,15,36986.30136986301, 1, 1,15
206,161847071.9264947,10622.090515773918, 6,16,30,129617.07769913932,31, 8,60
543,300144963.1902363,56205.305779150774, 6,16,30,176503.37906900233,31, 8,60
703,18172530800.14733,621496.0993379346, 6,16,30,15535607.752033055,31, 8,60
752,0.0,0.0, 1, 1,15,0.0, 1, 1,15
791,0.0,0.0, 1, 1,15,0.0, 1, 1,15
End of Data
 Number of Records Written=         140
