Program Version,EnergyPlus, Version 9.5.0-de239b2e5f, YMD=2024.06.10 09:18
1,5,Environment Title[],Latitude[deg],Longitude[deg],Time Zone[],Elevation[m]
2,8,Day of Simulation[],Month[],Day of Month[],DST Indicator[1=yes 0=no],Hour[],StartMinute[],EndMinute[],DayType
3,5,Cumulative Day of Simulation[],Month[],Day of Month[],DST Indicator[1=yes 0=no],DayType  ! When Daily Meters Requested
4,2,Cumulative Days of Simulation[],Month[]  ! When Monthly Meters Requested
5,1,Cumulative Days of Simulation[] ! When Run Period Meters Requested
6,1,Calendar Year of Simulation[] ! When Annual Meters Requested
51,9,InteriorLights:Electricity [J] !Monthly [Value,Min,Day,Hour,Minute,Max,Day,Hour,Minute]
88,9,InteriorEquipment:Electricity [J] !Monthly [Value,Min,Day,Hour,Minute,Max,Day,Hour,Minute]
206,9,Fans:Electricity [J] !Monthly [Value,Min,Day,Hour,Minute,Max,Day,Hour,Minute]
751,9,Heating:Electricity [J] !Monthly [Value,Min,Day,Hour,Minute,Max,Day,Hour,Minute]
790,9,Cooling:Electricity [J] !Monthly [Value,Min,Day,Hour,Minute,Max,Day,Hour,Minute]
543,9,ElectricityNet:Facility [J] !Monthly [Value,Min,Day,Hour,Minute,Max,Day,Hour,Minute]
702,9,NaturalGas:Facility [J] !Monthly [Value,Min,Day,Hour,Minute,Max,Day,Hour,Minute]
End of Data Dictionary
1,GREAT FALLS INTL ARPT ANN HTG 99.6% CONDNS DB HVAC Sizing Pass 1,  47.47,-111.38,  -7.00,1117.00
4,1, 1
51,0.0,0.0,21, 1,15,0.0,21, 1,15
88,31956164.38356158,332876.71232876708,21, 1,15,332876.71232876708,21, 1,15
206,10518155.891871544,98126.30543126063,21, 1,15,114424.46007657379,21,24,60
543,43392320.27543317,440903.01776002769,21, 1,15,457201.1724053409,21,24,60
702,1250140835.0550855,11588752.475792773,21, 1,15,13631465.892689573,21,24,60
751,0.0,0.0,21, 1,15,0.0,21, 1,15
790,0.0,0.0,21, 1,15,0.0,21, 1,15
1,GREAT FALLS INTL ARPT ANN HTG 99% CONDNS DB HVAC Sizing Pass 1,  47.47,-111.38,  -7.00,1117.00
4,1, 1
51,0.0,0.0,21, 1,15,0.0,21, 1,15
88,31956164.38356158,332876.71232876708,21, 1,15,332876.71232876708,21, 1,15
206,9267353.664370727,85200.21865264276,21, 1,15,101310.24898383614,21,24,60
543,42141518.04793239,427976.9309814098,21, 1,15,444086.9613126032,21,24,60
702,1093372750.1028999,9968673.916883769,21, 1,15,11987808.955193546,21,24,60
751,0.0,0.0,21, 1,15,0.0,21, 1,15
790,0.0,0.0,21, 1,15,0.0,21, 1,15
1,GREAT FALLS INTL ARPT ANN CLG .4% CONDNS DB=>MWB HVAC Sizing Pass 1,  47.47,-111.38,  -7.00,1117.00
4,1, 7
51,0.0,0.0,21, 1,15,0.0,21, 1,15
88,103805315.74356179,1081305.372328767,21, 1,15,1081305.372328767,21, 1,15
206,543683.4624000009,5663.3694,21, 1,15,5663.3694,21, 1,15
543,105225525.41758438,1095330.8431001378,21,13,30,1096868.741728767,21, 1,15
702,0.0,0.0,21, 1,15,0.0,21, 1,15
751,0.0,0.0,21, 1,15,0.0,21, 1,15
790,0.0,0.0,21, 1,15,0.0,21, 1,15
1,GREAT FALLS INTL ARPT ANN CLG 1% CONDNS DB=>MWB HVAC Sizing Pass 1,  47.47,-111.38,  -7.00,1117.00
4,1, 7
51,0.0,0.0,21, 1,15,0.0,21, 1,15
88,103805315.74356179,1081305.372328767,21, 1,15,1081305.372328767,21, 1,15
206,543683.4624000009,5663.3694,21, 1,15,5663.3694,21, 1,15
543,105225336.6864888,1095324.3244969955,21,13,30,1096868.741728767,21, 1,15
702,0.0,0.0,21, 1,15,0.0,21, 1,15
751,0.0,0.0,21, 1,15,0.0,21, 1,15
790,0.0,0.0,21, 1,15,0.0,21, 1,15
1,GREAT FALLS INTL ARPT ANN HTG 99.6% CONDNS DB,  47.47,-111.38,  -7.00,1117.00
4,1, 1
51,0.0,0.0,21, 1,15,0.0,21, 1,15
88,31956164.38356158,332876.71232876708,21, 1,15,332876.71232876708,21, 1,15
206,10520349.751361587,98152.27099802821,21, 1,15,114445.84305544362,21,24,60
543,43394514.13492322,440928.9833267953,21, 1,15,457222.55538421068,21,24,60
702,1250415800.3080624,11592006.844938716,21, 1,15,13634145.907622625,21,24,60
751,0.0,0.0,21, 1,15,0.0,21, 1,15
790,0.0,0.0,21, 1,15,0.0,21, 1,15
1,GREAT FALLS INTL ARPT ANN HTG 99% CONDNS DB,  47.47,-111.38,  -7.00,1117.00
4,1, 1
51,0.0,0.0,21, 1,15,0.0,21, 1,15
88,31956164.38356158,332876.71232876708,21, 1,15,332876.71232876708,21, 1,15
206,9267352.0107783,85200.19907305029,21, 1,15,101310.23281847178,21,24,60
543,42141516.39433994,427976.91140181737,21, 1,15,444086.94514723887,21,24,60
702,1093372542.8514953,9968671.462894524,21, 1,15,11987806.929123274,21,24,60
751,0.0,0.0,21, 1,15,0.0,21, 1,15
790,0.0,0.0,21, 1,15,0.0,21, 1,15
1,GREAT FALLS INTL ARPT ANN CLG .4% CONDNS DB=>MWB,  47.47,-111.38,  -7.00,1117.00
4,1, 7
51,0.0,0.0,21, 1,15,0.0,21, 1,15
88,103805315.74356179,1081305.372328767,21, 1,15,1081305.372328767,21, 1,15
206,543683.4624000009,5663.3694,21, 1,15,5663.3694,21, 1,15
543,105225525.41758438,1095330.8431001378,21,13,30,1096868.741728767,21, 1,15
702,0.0,0.0,21, 1,15,0.0,21, 1,15
751,0.0,0.0,21, 1,15,0.0,21, 1,15
790,0.0,0.0,21, 1,15,0.0,21, 1,15
1,GREAT FALLS INTL ARPT ANN CLG 1% CONDNS DB=>MWB,  47.47,-111.38,  -7.00,1117.00
4,1, 7
51,0.0,0.0,21, 1,15,0.0,21, 1,15
88,103805315.74356179,1081305.372328767,21, 1,15,1081305.372328767,21, 1,15
206,543683.4624000009,5663.3694,21, 1,15,5663.3694,21, 1,15
543,105225336.6864888,1095324.3244969955,21,13,30,1096868.741728767,21, 1,15
702,0.0,0.0,21, 1,15,0.0,21, 1,15
751,0.0,0.0,21, 1,15,0.0,21, 1,15
790,0.0,0.0,21, 1,15,0.0,21, 1,15
1,ANNUAL,  47.47,-111.38,  -7.00,1117.00
4,31, 1
51,0.0,0.0, 1, 1,15,0.0, 1, 1,15
88,990641095.890461,332876.71232876708, 1, 1,15,332876.71232876708, 1, 1,15
206,149124093.90511552,5663.369399999998, 6, 1,15,221184.68305193878,13, 1,45
543,1167916985.0166207,346653.91136092689, 6,13,30,563961.3953807058,13, 1,45
702,16578339988.914099,0.0, 1,13,45,27012154.971215708,13, 1,30
751,0.0,0.0, 1, 1,15,0.0, 1, 1,15
790,0.0,0.0, 1, 1,15,0.0, 1, 1,15
4,59, 2
51,0.0,0.0, 1, 1,15,0.0, 1, 1,15
88,894772602.739769,332876.71232876708, 1, 1,15,332876.71232876708, 1, 1,15
206,126268978.9547116,5663.3694,12,16,15,109015.96125496939, 1, 8,15
543,1046236045.6821916,346727.2636488319,25,13,30,451792.67358373649, 1, 8,15
702,13917822986.455569,0.0,12,16,15,12953596.934602414, 1, 8,15
751,0.0,0.0, 1, 1,15,0.0, 1, 1,15
790,0.0,0.0, 1, 1,15,0.0, 1, 1,15
4,90, 3
51,0.0,0.0, 1, 1,15,0.0, 1, 1,15
88,990641095.890461,332876.71232876708, 1, 1,15,332876.71232876708, 1, 1,15
206,109360299.27376531,5663.3694, 1,14,45,108026.9888815175, 4,24,60
543,1127699678.3712044,346641.3970677294,23,13,30,450803.7012102846, 4,24,60
702,11594163886.390688,0.0, 1,14,45,12829645.040651562, 4,24,60
751,0.0,0.0, 1, 1,15,0.0, 1, 1,15
790,0.0,0.0, 1, 1,15,0.0, 1, 1,15
4,120, 4
51,0.0,0.0, 1, 1,15,0.0, 1, 1,15
88,958684931.506897,332876.71232876708, 1, 1,15,332876.71232876708, 1, 1,15
206,59958935.10883504,5663.3694, 1,13,60,64832.58691794513,29, 5,60
543,1045288487.3139502,346731.40709894159, 2,13,30,407609.2992467122,29, 5,60
702,5470633826.610544,0.0, 1,13,60,7415916.532976864,29, 5,60
751,0.0,0.0, 1, 1,15,0.0, 1, 1,15
790,0.0,0.0, 1, 1,15,0.0, 1, 1,15
4,151, 5
51,0.0,0.0, 1, 1,15,0.0, 1, 1,15
88,990641095.890461,332876.71232876708, 1, 1,15,332876.71232876708, 1, 1,15
206,46196435.045872639,5663.3694, 1,12,45,55254.30670456689,22, 6,30
543,1089220372.7971194,346798.7016010404, 1,13,30,964043.1159443025,19,18,30
702,3455158825.8794186,0.0, 1,12,45,6215432.065350872,22, 6,30
751,0.0,0.0, 1, 1,15,0.0, 1, 1,15
790,25027730.83562086,0.0, 1, 1,15,575609.7881739804,19,18,30
4,181, 6
51,0.0,0.0, 1, 1,15,0.0, 1, 1,15
88,958684931.506897,332876.71232876708, 1, 1,15,332876.71232876708, 1, 1,15
206,43958317.61525794,5663.3694, 1, 1,15,87930.95972269187,29,16,15
543,1382984122.0282438,346910.02443254887, 6,13,30,1629502.3170653752,29,16,15
702,364040824.2935135,0.0, 1, 1,15,3384942.2884585245,17, 4,60
751,0.0,0.0, 1, 1,15,0.0, 1, 1,15
790,353975836.25105658,0.0, 1, 1,15,1200147.4713819274,29,15,60
4,212, 7
51,0.0,0.0, 1, 1,15,0.0, 1, 1,15
88,990641095.890461,332876.71232876708, 1, 1,15,332876.71232876708, 1, 1,15
206,63067775.85327165,5663.369399999998,21, 3,30,128489.14483076547,17,17,15
543,1757418819.105738,346894.1370597577, 8,13,30,2417324.9365912477,17,16,60
702,2575877.4583934049,0.0, 1, 1,15,2455650.451928701,27, 1,15
751,0.0,0.0, 1, 1,15,0.0, 1, 1,15
790,676455292.903643,0.0, 1, 1,15,1947414.2792989447,17,16,60
4,243, 8
51,0.0,0.0, 1, 1,15,0.0, 1, 1,15
88,990641095.890461,332876.71232876708, 1, 1,15,332876.71232876708, 1, 1,15
206,67377932.68532059,5663.3694, 1, 1,15,120293.55612683523, 6,17,15
543,1804332780.3216804,346828.18131922979,18,14,15,2214185.1419815819, 6,17,15
702,72520217.67270765,0.0, 1, 1,15,1900578.3714006209,18, 6,15
751,0.0,0.0, 1, 1,15,0.0, 1, 1,15
790,718917618.3638193,0.0, 1, 1,15,1752321.7914214279, 6,17,15
4,273, 9
51,0.0,0.0, 1, 1,15,0.0, 1, 1,15
88,958684931.506897,332876.71232876708, 1, 1,15,332876.71232876708, 1, 1,15
206,45519886.047593187,5663.3694, 1, 1,15,112336.77850542548, 2,17,45
543,1316978943.630066,346760.17630532899,16,13,30,2078427.100934727, 2,17,60
702,1197496350.8516463,0.0, 1, 1,15,3891599.964933834,17, 6,45
751,0.0,0.0, 1, 1,15,0.0, 1, 1,15
790,286063109.00552299,0.0, 1, 1,15,1624465.9553167977, 2,17,60
4,304,10
51,0.0,0.0, 1, 1,15,0.0, 1, 1,15
88,990641095.890461,332876.71232876708, 1, 1,15,332876.71232876708, 1, 1,15
206,49376106.81055642,5663.3694, 1, 1,15,55701.93583483759,10, 7,45
543,1068536626.6348813,346726.1255389494,11,13,30,485827.1665358304,18,17,30
702,4069619649.8109695,0.0, 1, 1,15,6271535.228567622,10, 7,45
751,0.0,0.0, 1, 1,15,0.0, 1, 1,15
790,683414.5074497766,0.0, 1, 1,15,128766.53948823837,18,17,30
4,334,11
51,0.0,0.0, 1, 1,15,0.0, 1, 1,15
88,958684931.506897,332876.71232876708, 1, 1,15,332876.71232876708, 1, 1,15
206,94245668.13936119,5663.3694, 1,14,15,91340.27292647488,27, 5,60
543,1080098102.7589994,346771.18094155428, 3,13,15,434116.9852552419,27, 5,60
702,9767928281.547829,0.0, 1,14,15,10738231.668579188,27, 5,60
751,0.0,0.0, 1, 1,15,0.0, 1, 1,15
790,0.0,0.0, 1, 1,15,0.0, 1, 1,15
4,365,12
51,0.0,0.0, 1, 1,15,0.0, 1, 1,15
88,990641095.890461,332876.71232876708, 1, 1,15,332876.71232876708, 1, 1,15
206,155066849.2647325,8570.524891656474, 6,16,30,126959.66828769942,31, 8,60
543,1173934603.5421713,350044.1511139374, 6,16,30,469736.3806164665,31, 8,60
702,17322750032.397039,364365.51603832098, 6,16,30,15202554.065167103,31, 8,60
751,0.0,0.0, 1, 1,15,0.0, 1, 1,15
790,0.0,0.0, 1, 1,15,0.0, 1, 1,15
End of Data
 Number of Records Written=         140
