Program Version,EnergyPlus, Version 9.5.0-de239b2e5f, YMD=2024.06.10 15:40
1,5,Environment Title[],Latitude[deg],Longitude[deg],Time Zone[],Elevation[m]
2,8,Day of Simulation[],Month[],Day of Month[],DST Indicator[1=yes 0=no],Hour[],StartMinute[],EndMinute[],DayType
3,5,Cumulative Day of Simulation[],Month[],Day of Month[],DST Indicator[1=yes 0=no],DayType  ! When Daily Meters Requested
4,2,Cumulative Days of Simulation[],Month[]  ! When Monthly Meters Requested
5,1,Cumulative Days of Simulation[] ! When Run Period Meters Requested
6,1,Calendar Year of Simulation[] ! When Annual Meters Requested
50,9,InteriorLights:Electricity [J] !Monthly [Value,Min,Day,Hour,Minute,Max,Day,Hour,Minute]
87,9,InteriorEquipment:Electricity [J] !Monthly [Value,Min,Day,Hour,Minute,Max,Day,Hour,Minute]
205,9,Fans:Electricity [J] !Monthly [Value,Min,Day,Hour,Minute,Max,Day,Hour,Minute]
722,9,Heating:Electricity [J] !Monthly [Value,Min,Day,Hour,Minute,Max,Day,Hour,Minute]
684,9,Cooling:Electricity [J] !Monthly [Value,Min,Day,Hour,Minute,Max,Day,Hour,Minute]
541,9,ElectricityNet:Facility [J] !Monthly [Value,Min,Day,Hour,Minute,Max,Day,Hour,Minute]
End of Data Dictionary
1,GREAT FALLS INTL ARPT ANN HTG 99.6% CONDNS DB HVAC Sizing Pass 1,  47.47,-111.38,  -7.00,1117.00
4,1, 1
50,0.0,0.0,21, 1,15,0.0,21, 1,15
87,3550684.931506854,36986.30136986301,21, 1,15,36986.30136986301,21, 1,15
205,15296455.36185963,159338.07668603803,21, 1,15,159338.07668603803,21, 1,15
541,727986785.2593987,6360437.766603545,21, 1,15,8426813.288671159,21,24,15
684,0.0,0.0,21, 1,15,0.0,21, 1,15
722,702038043.3921734,6154213.388547644,21, 1,15,7819059.233385423,21,24,60
1,GREAT FALLS INTL ARPT ANN HTG 99% CONDNS DB HVAC Sizing Pass 1,  47.47,-111.38,  -7.00,1117.00
4,1, 1
50,0.0,0.0,21, 1,15,0.0,21, 1,15
87,3550684.931506854,36986.30136986301,21, 1,15,36986.30136986301,21, 1,15
205,15296455.36185963,159338.07668603803,21, 1,15,159338.07668603803,21, 1,15
541,656786972.4605759,5629016.099578549,21, 1,15,7677199.44116991,21,24,15
684,0.0,0.0,21, 1,15,0.0,21, 1,15
722,630838231.1138206,5422791.721522648,21, 1,15,7069118.613702679,21,24,60
1,GREAT FALLS INTL ARPT ANN CLG .4% CONDNS DB=>MWB HVAC Sizing Pass 1,  47.47,-111.38,  -7.00,1117.00
4,1, 7
50,0.0,0.0,21, 1,15,0.0,21, 1,15
87,75399836.29150689,785414.9613698631,21, 1,15,785414.9613698631,21, 1,15
205,2254045.1080918835,8495.0541,21, 1,15,35069.17689348767,21,17,15
541,136046993.76410369,802848.7001326634,21, 8,15,2540456.359922722,21,17,45
684,52569705.59169326,0.0,21, 1,15,1315399.3795603724,21,17,15
722,0.0,0.0,21, 1,15,0.0,21, 1,15
1,GREAT FALLS INTL ARPT ANN CLG 1% CONDNS DB=>MWB HVAC Sizing Pass 1,  47.47,-111.38,  -7.00,1117.00
4,1, 7
50,0.0,0.0,21, 1,15,0.0,21, 1,15
87,75399836.29150689,785414.9613698631,21, 1,15,785414.9613698631,21, 1,15
205,2110865.82478109,8495.0541,21, 1,15,29056.0164996999,21, 9,15
541,127552092.19303839,802736.4366510188,21, 8,60,2313238.095573394,21,15,45
684,43805933.786167677,0.0,21, 1,15,1163352.964155082,21,17,15
722,0.0,0.0,21, 1,15,0.0,21, 1,15
1,GREAT FALLS INTL ARPT ANN HTG 99.6% CONDNS DB,  47.47,-111.38,  -7.00,1117.00
4,1, 1
50,0.0,0.0,21, 1,15,0.0,21, 1,15
87,3550684.931506854,36986.30136986301,21, 1,15,36986.30136986301,21, 1,15
205,15296455.36185963,159338.07668603803,21, 1,15,159338.07668603803,21, 1,15
541,728209100.3618882,6363069.387963146,21, 1,15,8428928.985935443,21,24,15
684,0.0,0.0,21, 1,15,0.0,21, 1,15
722,702260358.4951651,6156845.009907245,21, 1,15,7821194.383282446,21,24,60
1,GREAT FALLS INTL ARPT ANN HTG 99% CONDNS DB,  47.47,-111.38,  -7.00,1117.00
4,1, 1
50,0.0,0.0,21, 1,15,0.0,21, 1,15
87,3550684.931506854,36986.30136986301,21, 1,15,36986.30136986301,21, 1,15
205,15296455.36185963,159338.07668603803,21, 1,15,159338.07668603803,21, 1,15
541,656786805.2803719,5629014.120498795,21, 1,15,7677197.820597167,21,24,15
684,0.0,0.0,21, 1,15,0.0,21, 1,15
722,630838063.9336157,5422789.742442894,21, 1,15,7069116.987763135,21,24,60
1,GREAT FALLS INTL ARPT ANN CLG .4% CONDNS DB=>MWB,  47.47,-111.38,  -7.00,1117.00
4,1, 7
50,0.0,0.0,21, 1,15,0.0,21, 1,15
87,75399836.29150689,785414.9613698631,21, 1,15,785414.9613698631,21, 1,15
205,2254045.1075404647,8495.0541,21, 1,15,35069.176852349665,21,17,15
541,136046993.7217035,802848.7001326634,21, 8,15,2540456.3592880486,21,17,45
684,52569705.549846779,0.0,21, 1,15,1315399.3789009294,21,17,15
722,0.0,0.0,21, 1,15,0.0,21, 1,15
1,GREAT FALLS INTL ARPT ANN CLG 1% CONDNS DB=>MWB,  47.47,-111.38,  -7.00,1117.00
4,1, 7
50,0.0,0.0,21, 1,15,0.0,21, 1,15
87,75399836.29150689,785414.9613698631,21, 1,15,785414.9613698631,21, 1,15
205,2110865.82478109,8495.0541,21, 1,15,29056.0164996999,21, 9,15
541,127552092.19372179,802736.4366510188,21, 8,60,2313238.095584211,21,15,45
684,43805933.78685096,0.0,21, 1,15,1163352.964164299,21,17,15
722,0.0,0.0,21, 1,15,0.0,21, 1,15
1,ANNUAL,  47.47,-111.38,  -7.00,1117.00
4,31, 1
50,392525124.40407267,25324.201574456874, 1, 1,15,405187.22519131, 1,21,15
87,1507523148.62302,96413.40940916693, 1, 4,15,1077812.6550996074, 1,20,15
205,346391520.46544608,8495.0541, 1,12,15,159338.07668603803, 1, 7,30
541,13132166810.495139,241364.64255249984, 1, 1,15,9540752.10522165,10,23,60
684,0.0,0.0, 1, 1,15,0.0, 1, 1,15
722,10760525076.158858,0.0, 1,12,15,9049627.788784996,11, 1,45
4,59, 2
50,354538822.04238906,25324.201574456874, 1, 1,15,405187.22519131, 1,21,15
87,1361633811.659498,96413.40940916693, 1, 4,15,1077812.6550996074, 1,20,15
205,247414300.38134236,8495.0541,12,15,15,159338.07668603803, 1, 1,15
541,8456234579.930043,469147.38270065546,26,24,15,7933370.311805374, 1, 8,45
684,0.0,0.0, 1, 1,15,0.0, 1, 1,15
722,6380059003.729816,0.0,12,15,15,7170873.977576063, 4, 4,60
4,90, 3
50,392525124.40407267,25324.201574456874, 1, 1,15,405187.22519131, 1,21,15
87,1507523148.62302,96413.40940916693, 1, 4,15,1077812.6550996074, 1,20,15
205,233723885.15217079,8495.0541, 1,13,15,159338.07668603803, 1, 1,15
541,7383740928.733717,525345.841156245,16,16,15,7474339.676291054, 5, 2,60
684,0.0,0.0, 1, 1,15,0.0, 1, 1,15
722,5125512647.275761,0.0, 1,13,15,7142860.906234013, 5, 2,60
4,120, 4
50,379863023.6168448,25324.201574456874, 1, 1,15,405187.22519131, 1,21,15
87,1458893369.6351794,96413.40940916693, 1, 4,15,1077812.6550996074, 1,20,15
205,105513321.79553668,8495.0541, 1,13,30,159338.07668603803, 4, 6,60
541,4004733741.6340219,158481.3188993075, 7, 4,15,4723836.686827193,29, 6,15
684,2435799.5108559026,0.0, 1, 1,15,150476.53233968604, 6,18,30
722,1937746986.9531878,0.0, 1,13,30,4195379.84383168,29, 5,60
4,151, 5
50,392525124.40407267,25324.201574456874, 1, 1,15,405187.22519131, 1,21,15
87,1507523148.62302,96413.40940916693, 1, 4,15,1077812.6550996074, 1,20,15
205,92957928.29493787,8495.0541, 1,10,30,159338.07668603803, 1, 1,15
541,3364112914.7791488,158481.3188993075, 3, 4,15,3827247.7820890045, 9, 5,60
684,87135331.71147824,0.0, 1, 1,15,867466.0721867626,19,19,15
722,1159858430.6488283,0.0, 1,10,30,3374580.4162213525, 9, 4,60
4,181, 6
50,379863023.6168448,25324.201574456874, 1, 1,15,405187.22519131, 1,21,15
87,1458893369.6351794,96413.40940916693, 1, 4,15,1077812.6550996074, 1,20,15
205,49324480.932459648,8495.0541, 1, 1,15,37430.65180846443,28,19,15
541,2626430090.916595,158481.3188993075, 1, 4,15,2802240.571139843,30,20,15
684,576132473.3979493,0.0, 1, 1,15,1299870.247883344,30,19,15
722,42215087.25491436,0.0, 1, 1,15,1640888.2442698237,17, 4,60
4,212, 7
50,392525124.40407267,25324.201574456874, 1, 1,15,405187.22519131, 1,21,15
87,1507523148.62302,96413.40940916693, 1, 4,15,1077812.6550996074, 1,20,15
205,65576287.25933591,8495.0541, 1, 1,30,89760.11556009224,17,19,15
541,3331364777.0695617,158481.3188993075, 1, 4,15,3433761.9445529256,17,19,15
684,1241727722.2530733,0.0, 1, 1,30,1952820.6080559416,17,19,15
722,0.0,0.0, 1, 1,15,0.0, 1, 1,15
4,243, 8
50,392525124.40407267,25324.201574456874, 1, 1,15,405187.22519131, 1,21,15
87,1507523148.62302,96413.40940916693, 1, 4,15,1077812.6550996074, 1,20,15
205,60982123.22564591,8495.0541, 1, 1,30,62615.92026706591, 6,17,15
541,3078105373.934515,158481.3188993075, 1, 4,15,3099511.4515086559, 5,20,15
684,992152944.97724,0.0, 1, 1,30,1697997.835705881, 6,17,15
722,768059.2507541339,0.0, 1, 1,15,122007.25335777307,18, 5,60
4,273, 9
50,379863023.6168448,25324.201574456874, 1, 1,15,405187.22519131, 1,21,15
87,1458893369.6351794,96413.40940916693, 1, 4,15,1077812.6550996074, 1,20,15
205,48227008.60016844,8495.0541, 1, 1,15,159338.07668603803,17, 3,60
541,2625623667.1834084,158481.3188993075, 1, 4,15,2884452.5587591037, 4,19,15
684,418479609.0984498,0.0, 1, 1,15,1620460.618618786, 2,18,15
722,199813019.73850904,0.0, 1, 1,15,1760948.3688292497,19, 4,60
4,304,10
50,392525124.40407267,25324.201574456874, 1, 1,15,405187.22519131, 1,21,15
87,1507523148.62302,96413.40940916693, 1, 4,15,1077812.6550996074, 1,20,15
205,81221629.30252132,8495.0541, 1, 1,15,159338.07668603803, 4, 2,15
541,3272181489.442445,158481.3188993075, 1, 4,15,4126571.8410648915,10, 7,45
684,5931566.711085123,0.0, 1, 1,15,361970.6210387977,18,17,30
722,1160386170.9036697,0.0, 1, 1,15,3331345.6146767048,10, 5,60
4,334,11
50,379863023.6168448,25324.201574456874, 1, 1,15,405187.22519131, 1,21,15
87,1458893369.6351794,96413.40940916693, 1, 4,15,1077812.6550996074, 1,20,15
205,204582305.2353338,8495.0541, 1,11,45,159338.07668603803, 2, 4,30
541,6277542374.33084,180635.7474710044, 5, 2,15,6435826.982228862,27, 6,15
684,0.0,0.0, 1, 1,15,0.0, 1, 1,15
722,4113399553.306534,0.0, 1,11,45,6001541.428322995,27, 4,60
4,365,12
50,392525124.40407267,25324.201574456874, 1, 1,15,405187.22519131, 1,21,15
87,1507523148.62302,96413.40940916693, 1, 4,15,1077812.6550996074, 1,20,15
205,338030258.4055412,8495.0541, 6,13,60,159338.07668603803, 1, 1,15
541,10880599583.209128,525630.0630795152, 6,16,15,8715362.956797798,31, 8,60
684,0.0,0.0, 1, 1,15,0.0, 1, 1,15
722,8517536553.317833,0.0, 6,13,60,7973491.736237903,31, 9,15
End of Data
 Number of Records Written=         120
