Program Version,EnergyPlus, Version 9.5.0-de239b2e5f, YMD=2024.06.10 15:46
1,5,Environment Title[],Latitude[deg],Longitude[deg],Time Zone[],Elevation[m]
2,8,Day of Simulation[],Month[],Day of Month[],DST Indicator[1=yes 0=no],Hour[],StartMinute[],EndMinute[],DayType
3,5,Cumulative Day of Simulation[],Month[],Day of Month[],DST Indicator[1=yes 0=no],DayType  ! When Daily Meters Requested
4,2,Cumulative Days of Simulation[],Month[]  ! When Monthly Meters Requested
5,1,Cumulative Days of Simulation[] ! When Run Period Meters Requested
6,1,Calendar Year of Simulation[] ! When Annual Meters Requested
51,9,InteriorLights:Electricity [J] !Monthly [Value,Min,Day,Hour,Minute,Max,Day,Hour,Minute]
88,9,InteriorEquipment:Electricity [J] !Monthly [Value,Min,Day,Hour,Minute,Max,Day,Hour,Minute]
206,9,Fans:Electricity [J] !Monthly [Value,Min,Day,Hour,Minute,Max,Day,Hour,Minute]
727,9,Heating:Electricity [J] !Monthly [Value,Min,Day,Hour,Minute,Max,Day,Hour,Minute]
689,9,Cooling:Electricity [J] !Monthly [Value,Min,Day,Hour,Minute,Max,Day,Hour,Minute]
543,9,ElectricityNet:Facility [J] !Monthly [Value,Min,Day,Hour,Minute,Max,Day,Hour,Minute]
End of Data Dictionary
1,GREAT FALLS INTL ARPT ANN HTG 99.6% CONDNS DB HVAC Sizing Pass 1,  47.47,-111.38,  -7.00,1117.00
4,1, 1
51,0.0,0.0,21, 1,15,0.0,21, 1,15
88,3550684.931506854,36986.30136986301,21, 1,15,36986.30136986301,21, 1,15
206,14668038.477443206,152792.0674733665,21, 1,15,152792.0674733665,21, 1,15
543,691781479.6912807,6036442.870602854,21, 1,15,7702628.293105784,21,24,60
689,0.0,0.0,21, 1,15,0.0,21, 1,15
727,672644756.282331,5836764.501759624,21, 1,15,7502949.924262554,21,24,60
1,GREAT FALLS INTL ARPT ANN HTG 99% CONDNS DB HVAC Sizing Pass 1,  47.47,-111.38,  -7.00,1117.00
4,1, 1
51,0.0,0.0,21, 1,15,0.0,21, 1,15
88,3550684.931506854,36986.30136986301,21, 1,15,36986.30136986301,21, 1,15
206,14668038.477443206,152792.0674733665,21, 1,15,152792.0674733665,21, 1,15
543,620916494.6890034,5308461.818910976,21, 1,15,6956047.781844137,21,24,60
689,0.0,0.0,21, 1,15,0.0,21, 1,15
727,601779771.2800535,5108783.450067746,21, 1,15,6756369.413000907,21,24,60
1,GREAT FALLS INTL ARPT ANN CLG .4% CONDNS DB=>MWB HVAC Sizing Pass 1,  47.47,-111.38,  -7.00,1117.00
4,1, 7
51,0.0,0.0,21, 1,15,0.0,21, 1,15
88,75399836.29150689,785414.9613698631,21, 1,15,785414.9613698631,21, 1,15
206,543683.4624000009,5663.3694,21, 1,15,5663.3694,21, 1,15
543,76820045.96552962,799440.4321412338,21,13,30,800978.3307698631,21, 1,15
689,0.0,0.0,21, 1,15,0.0,21, 1,15
727,0.0,0.0,21, 1,15,0.0,21, 1,15
1,GREAT FALLS INTL ARPT ANN CLG 1% CONDNS DB=>MWB HVAC Sizing Pass 1,  47.47,-111.38,  -7.00,1117.00
4,1, 7
51,0.0,0.0,21, 1,15,0.0,21, 1,15
88,75399836.29150689,785414.9613698631,21, 1,15,785414.9613698631,21, 1,15
206,543683.4624000009,5663.3694,21, 1,15,5663.3694,21, 1,15
543,76819857.23443406,799433.9135380916,21,13,30,800978.3307698631,21, 1,15
689,0.0,0.0,21, 1,15,0.0,21, 1,15
727,0.0,0.0,21, 1,15,0.0,21, 1,15
1,GREAT FALLS INTL ARPT ANN HTG 99.6% CONDNS DB,  47.47,-111.38,  -7.00,1117.00
4,1, 1
51,0.0,0.0,21, 1,15,0.0,21, 1,15
88,3550684.931506854,36986.30136986301,21, 1,15,36986.30136986301,21, 1,15
206,14668038.477443206,152792.0674733665,21, 1,15,152792.0674733665,21, 1,15
543,692003908.4043889,6039075.553932439,21, 1,15,7704849.277147165,21,24,60
689,0.0,0.0,21, 1,15,0.0,21, 1,15
727,672867184.9954382,5839397.185089208,21, 1,15,7505170.908303934,21,24,60
1,GREAT FALLS INTL ARPT ANN HTG 99% CONDNS DB,  47.47,-111.38,  -7.00,1117.00
4,1, 1
51,0.0,0.0,21, 1,15,0.0,21, 1,15
88,3550684.931506854,36986.30136986301,21, 1,15,36986.30136986301,21, 1,15
206,14668038.477443206,152792.0674733665,21, 1,15,152792.0674733665,21, 1,15
543,620916327.3214945,5308459.835227463,21, 1,15,6956046.157246771,21,24,60
689,0.0,0.0,21, 1,15,0.0,21, 1,15
727,601779603.9125444,5108781.466384233,21, 1,15,6756367.788403541,21,24,60
1,GREAT FALLS INTL ARPT ANN CLG .4% CONDNS DB=>MWB,  47.47,-111.38,  -7.00,1117.00
4,1, 7
51,0.0,0.0,21, 1,15,0.0,21, 1,15
88,75399836.29150689,785414.9613698631,21, 1,15,785414.9613698631,21, 1,15
206,543683.4624000009,5663.3