Program Version,EnergyPlus, Version 9.5.0-de239b2e5f, YMD=2024.06.10 15:40
1,5,Environment Title[],Latitude[deg],Longitude[deg],Time Zone[],Elevation[m]
2,8,Day of Simulation[],Month[],Day of Month[],DST Indicator[1=yes 0=no],Hour[],StartMinute[],EndMinute[],DayType
3,5,Cumulative Day of Simulation[],Month[],Day of Month[],DST Indicator[1=yes 0=no],DayType  ! When Daily Meters Requested
4,2,Cumulative Days of Simulation[],Month[]  ! When Monthly Meters Requested
5,1,Cumulative Days of Simulation[] ! When Run Period Meters Requested
6,1,Calendar Year of Simulation[] ! When Annual Meters Requested
50,9,InteriorLights:Electricity [J] !Monthly [Value,Min,Day,Hour,Minute,Max,Day,Hour,Minute]
87,9,InteriorEquipment:Electricity [J] !Monthly [Value,Min,Day,Hour,Minute,Max,Day,Hour,Minute]
205,9,Fans:Electricity [J] !Monthly [Value,Min,Day,Hour,Minute,Max,Day,Hour,Minute]
747,9,Heating:Electricity [J] !Monthly [Value,Min,Day,Hour,Minute,Max,Day,Hour,Minute]
786,9,Cooling:Electricity [J] !Monthly [Value,Min,Day,Hour,Minute,Max,Day,Hour,Minute]
541,9,ElectricityNet:Facility [J] !Monthly [Value,Min,Day,Hour,Minute,Max,Day,Hour,Minute]
698,9,NaturalGas:Facility [J] !Monthly [Value,Min,Day,Hour,Minute,Max,Day,Hour,Minute]
End of Data Dictionary
1,GREAT FALLS INTL ARPT ANN HTG 99.6% CONDNS DB HVAC Sizing Pass 1,  47.47,-111.38,  -7.00,1117.00
4,1, 1
50,0.0,0.0,21, 1,15,0.0,21, 1,15
87,3550684.931506854,36986.30136986301,21, 1,15,36986.30136986301,21, 1,15
205,11316507.395290662,106436.72883576656,21, 1,15,122874.2960741419,21,24,60
541,15795207.534451079,153323.03020562957,21, 1,15,170322.35790629689,21,24,15
698,1322337296.1092246,12275735.31997707,21, 1,15,14734267.036798785,21,24,15
747,0.0,0.0,21, 1,15,0.0,21, 1,15
786,0.0,0.0,21, 1,15,0.0,21, 1,15
1,GREAT FALLS INTL ARPT ANN HTG 99% CONDNS DB HVAC Sizing Pass 1,  47.47,-111.38,  -7.00,1117.00
4,1, 1
50,0.0,0.0,21, 1,15,0.0,21, 1,15
87,3550684.931506854,36986.30136986301,21, 1,15,36986.30136986301,21, 1,15
205,10058540.970342845,93433.6386162731,21, 1,15,109689.83598393758,21,24,60
541,14537241.10884894,140319.93998613614,21, 1,15,157141.4955530136,21,24,15
698,1164667305.7272695,10645964.394506133,21, 1,15,13082214.607829405,21,24,15
747,0.0,0.0,21, 1,15,0.0,21, 1,15
786,0.0,0.0,21, 1,15,0.0,21, 1,15
1,GREAT FALLS INTL ARPT ANN CLG .4% CONDNS DB=>MWB HVAC Sizing Pass 1,  47.47,-111.38,  -7.00,1117.00
4,1, 7
50,0.0,0.0,21, 1,15,0.0,21, 1,15
87,75399836.29150689,785414.9613698631,21, 1,15,785414.9613698631,21, 1,15
205,4588230.421161862,8495.0541,21, 1,15,105209.42893847208,21,17,15
541,135306194.1575517,802781.2385331995,21, 8,45,2329525.940049729,21,16,60
698,4938880.133459065,0.0,21, 1,15,411577.0342074778,21,21,30
747,0.0,0.0,21, 1,15,0.0,21, 1,15
786,54433589.04725139,0.0,21, 1,15,1430390.960426544,21,16,60
1,GREAT FALLS INTL ARPT ANN CLG 1% CONDNS DB=>MWB HVAC Sizing Pass 1,  47.47,-111.38,  -7.00,1117.00
4,1, 7
50,0.0,0.0,21, 1,15,0.0,21, 1,15
87,75399836.29150689,785414.9613698631,21, 1,15,785414.9613698631,21, 1,15
205,3882805.3517980605,8495.0541,21, 1,15,93101.93469635534,21,17,15
541,123851616.30430535,802645.1241863713,21, 9,30,2113787.5354621408,21,17,15
698,5350455.177280827,0.0,21, 1,15,411578.7658474057,21,15,45
747,0.0,0.0,21, 1,15,0.0,21, 1,15
786,43683957.30954021,0.0,21, 1,15,1226757.7323130656,21,16,60
1,GREAT FALLS INTL ARPT ANN HTG 99.6% CONDNS DB,  47.47,-111.38,  -7.00,1117.00
4,1, 1
50,0.0,0.0,21, 1,15,0.0,21, 1,15
87,3550684.931506854,36986.30136986301,21, 1,15,36986.30136986301,21, 1,15
205,11318702.262272306,106462.73681261148,21, 1,15,122895.28615861794,21,24,60
541,15797402.401432004,153349.03818247448,21, 1,15,170343.14347439694,21,24,15
698,1322612394.5916539,12278995.086984504,21, 1,15,14736872.241718967,21,24,15
747,0.0,0.0,21, 1,15,0.0,21, 1,15
786,0.0,0.0,21, 1,15,0.0,21, 1,15
1,GREAT FALLS INTL ARPT ANN HTG 99% CONDNS DB,  47.47,-111.38,  -7.00,1117.00
4,1, 1
50,0.0,0.0,21, 1,15,0.0,21, 1,15
87,3550684.931506854,36986.30136986301,21, 1,15,36986.30136986301,21, 1,15
205,10058539.319239343,93433.61905478506,21, 1,15,109689.81994020751,21,24,60
541,14537239.457745444,140319.9204246481,21, 1,15,157141.47956061708,21,24,15
698,1164667098.7825795,10645961.942723982,21, 1,15,13082212.603387215,21,24,15
747,0.0,0.0,21, 1,15,0.0,21, 1,15
786,0.0,0.0,21, 1,15,0.0,21, 1,15
1,GREAT FALLS INTL ARPT ANN CLG .4% CONDNS DB=>MWB,  47.47,-111.38,  -7.00,1117.00
4,1, 7
50,0.0,0.0,21, 1,15,0.0,21, 1,15
87,75399836.29150689,785414.9613698631,21, 1,15,785414.9613698631,21, 1,15
205,4588230.418168992,8495.0541,21, 1,15,105209.42889526252,21,17,15
541,135306194.11209549,802781.2385331995,21, 8,45,2329525.939350905,21,16,60
698,4938880.133459372,0.0,21, 1,15,411577.03420750869,21,21,30
747,0.0,0.0,21, 1,15,0.0,21, 1,15
786,54433589.00478807,0.0,21, 1,15,1430390.959771931,21,16,60
1,GREAT FALLS INTL ARPT ANN CLG 1% CONDNS DB=>MWB,  47.47,-111.38,  -7.00,1117.00
4,1, 7
50,0.0,0.0,21, 1,15,0.0,21, 1,15
87,75399836.29150689,785414.9613698631,21, 1,15,785414.9613698631,21, 1,15
205,3882805.351815515,8495.0541,21, 1,15,93101.93469663007,21,17,15
541,123851616.30456896,802645.1241863713,21, 9,30,2113787.535466398,21,17,15
698,5350455.1772808,0.0,21, 1,15,411578.7658474055,21,15,45
747,0.0,0.0,21, 1,15,0.0,21, 1,15
786,43683957.3097864,0.0,21, 1,15,1226757.732317041,21,16,60
1,ANNUAL,  47.47,-111.38,  -7.00,1117.00
4,31, 1
50,392525124.40407267,25324.201574456874, 1, 1,15,405187.22519131, 1,21,15
87,1507523148.62302,96413.40940916693, 1, 4,15,1077812.6550996074, 1,20,15
205,198670863.47194366,8495.0541, 1,13,45,148468.79330678256,10,24,15
541,2180330142.771968,177669.82222780487, 1, 4,15,1616439.760651999, 5,20,60
698,21775755808.75852,11505.57591756103, 1,16,15,17551935.648188816,10,24,15
747,0.0,0.0, 1, 1,15,0.0, 1, 1,15
786,0.0,0.0, 1, 1,15,0.0, 1, 1,15
4,59, 2
50,354538822.04238906,25324.201574456874, 1, 1,15,405187.22519131, 1,21,15
87,1361633811.659498,96413.40940916693, 1, 4,15,1077812.6550996074, 1,20,15
205,128925048.7773844,8495.0541,12,15,60,111496.27903404043, 4, 3,60
541,1918676146.4670237,187186.8493979305,27, 4,15,1597836.6858864374, 9,20,60
698,13336076810.535029,11505.57591756103,12,16,15,12910233.831243236, 4, 3,60
747,0.0,0.0, 1, 1,15,0.0, 1, 1,15
786,0.0,0.0, 1, 1,15,0.0, 1, 1,15
4,90, 3
50,392525124.40407267,25324.201574456874, 1, 1,15,405187.22519131, 1,21,15
87,1507523148.62302,96413.40940916693, 1, 4,15,1077812.6550996074, 1,20,15
205,112988800.2137797,8495.0541, 1,14,45,112133.83898570152, 5, 1,15
541,2094303356.4478973,188907.78025287789,11, 4,15,1583345.0304619212, 4,20,60
698,11036204757.625658,11505.57591756103, 1,16,15,12991887.079789779, 5, 1,15
747,0.0,0.0, 1, 1,15,0.0, 1, 1,15
786,0.0,0.0, 1, 1,15,0.0, 1, 1,15
4,120, 4
50,379863023.6168448,25324.201574456874, 1, 1,15,405187.22519131, 1,21,15
87,1458893369.6351794,96413.40940916693, 1, 4,15,1077812.6550996074, 1,20,15
205,63691360.631637509,8495.0541, 1,13,60,68727.28697809213,29, 5,60
541,1980953905.3832429,158132.6650836238, 7, 4,15,1535802.0842859855,27,20,45
698,4958015134.322569,348.65381568366765, 7, 3,15,7550385.407984675,29, 5,60
747,0.0,0.0, 1, 1,15,0.0, 1, 1,15
786,21530.8013166752,0.0, 1, 1,15,21530.8013166752, 6,18,45
4,151, 5
50,392525124.40407267,25324.201574456874, 1, 1,15,405187.22519131, 1,21,15
87,1507523148.62302,96413.40940916693, 1, 4,15,1077812.6550996074, 1,20,15
205,54199893.39298711,8495.0541, 1,12,45,68189.48105624769,19,19,15
541,2094342716.5782517,158132.6650836238,14, 4,15,2274501.998451215,19,20,15
698,3122835833.982314,348.65381568366765,13, 3,15,6174789.225096484,22, 5,60
747,0.0,0.0, 1, 1,15,0.0, 1, 1,15
786,59171439.13296769,0.0, 1, 1,15,828386.2818966301,19,19,15
4,181, 6
50,379863023.6168448,25324.201574456874, 1, 1,15,405187.22519131, 1,21,15
87,1458893369.6351794,96413.40940916693, 1, 4,15,1077812.6550996074, 1,20,15
205,61258601.814058478,8495.0541, 1, 1,15,106142.48189054962,28,19,15
541,2467072997.4974524,158132.6650836238, 1, 4,15,2857087.807558166,28,20,15
698,289576295.50034889,348.65381568366765, 1, 3,15,3464869.689185145,17, 4,60
747,0.0,0.0, 1, 1,15,0.0, 1, 1,15
786,488852965.7762844,0.0, 1, 1,15,1374615.9750117178,28,19,15
4,212, 7
50,392525124.40407267,25324.201574456874, 1, 1,15,405187.22519131, 1,21,15
87,1507523148.62302,96413.40940916693, 1, 4,15,1077812.6550996074, 1,20,15
205,108329157.61572135,8495.0541, 1, 1,15,144885.20679781677,17,19,15
541,3278532671.926155,158132.6650836238, 1, 4,15,3614411.1812179677,17,19,15
698,43189840.07163056,348.65381568366765, 1, 3,15,27543.651439009733, 1, 8,15
747,0.0,0.0, 1, 1,15,0.0, 1, 1,15
786,1189332586.8249036,0.0, 1, 1,15,2102401.866765432,17,19,15
4,243, 8
50,392525124.40407267,25324.201574456874, 1, 1,15,405187.22519131, 1,21,15
87,1507523148.62302,96413.40940916693, 1, 4,15,1077812.6550996074, 1,20,15
205,90456469.94636828,8495.0541, 1, 1,15,134002.44120040144, 6,17,15
541,2987798268.7554547,158132.6650836238, 1, 4,15,3269153.0777308049, 5,19,15
698,88927161.12095475,348.65381568366765, 1, 3,15,1793219.74093917,18, 5,60
747,0.0,0.0, 1, 1,15,0.0, 1, 1,15
786,916329392.3998456,0.0, 1, 1,15,1901193.190047738, 6,17,15
4,273, 9
50,379863023.6168448,25324.201574456874, 1, 1,15,405187.22519131, 1,21,15
87,1458893369.6351794,96413.40940916693, 1, 4,15,1077812.6550996074, 1,20,15
205,58298054.218928288,8495.0541, 1, 1,15,126718.02664306887, 2,18,15
541,2350439437.1721208,158132.6650836238, 1, 4,15,3056326.3337435007, 2,18,15
698,995213406.1991384,348.65381568366765, 1, 3,15,3786167.894560757,17, 5,60
747,0.0,0.0, 1, 1,15,0.0, 1, 1,15
786,374833972.6310593,0.0, 1, 1,15,1776935.7526542773, 2,18,15
4,304,10
50,392525124.40407267,25324.201574456874, 1, 1,15,405187.22519131, 1,21,15
87,1507523148.62302,96413.40940916693, 1, 4,15,1077812.6550996074, 1,20,15
205,53045438.495177488,8495.0541, 1, 1,15,56961.59578756779,10, 6,60
541,2036598066.642645,158132.6650836238, 1, 4,15,1538108.9839444734,31,20,60
698,3502854798.7606709,348.65381568366765, 1, 3,15,6082331.035157569,10, 6,60
747,0.0,0.0, 1, 1,15,0.0, 1, 1,15
786,2100345.6939192388,0.0, 1, 1,15,287273.4546910494,18,17,15
4,334,11
50,379863023.6168448,25324.201574456874, 1, 1,15,405187.22519131, 1,21,15
87,1458893369.6351794,96413.40940916693, 1, 4,15,1077812.6550996074, 1,20,15
205,97732805.97249975,8495.0541, 1,14,15,96347.39475809115,27, 4,60
541,2015496702.337316,170273.148100192, 8, 4,15,1583266.9466652654,26,20,60
698,9224883573.178648,8019.037760724353, 4,24,15,11011515.085967323,27, 4,60
747,0.0,0.0, 1, 1,15,0.0, 1, 1,15
786,0.0,0.0, 1, 1,15,0.0, 1, 1,15
4,365,12
50,392525124.40407267,25324.201574456874, 1, 1,15,405187.22519131, 1,21,15
87,1507523148.62302,96413.40940916693, 1, 4,15,1077812.6550996074, 1,20,15
205,159599780.86162675,11602.86433650936, 6,17,15,128959.72804618239,31, 9,15
541,2141442712.2757543,173086.69892415449,10, 4,15,1605788.8093716296,31,20,60
698,16878294582.832709,404865.0025024626, 6,17,15,15125202.677018736,31, 9,15
747,0.0,0.0, 1, 1,15,0.0, 1, 1,15
786,0.0,0.0, 1, 1,15,0.0, 1, 1,15
End of Data
 Number of Records Written=         140
