Program Version,EnergyPlus, Version 9.5.0-de239b2e5f, YMD=2024.06.10 09:19
1,5,Environment Title[],Latitude[deg],Longitude[deg],Time Zone[],Elevation[m]
2,8,Day of Simulation[],Month[],Day of Month[],DST Indicator[1=yes 0=no],Hour[],StartMinute[],EndMinute[],DayType
3,5,Cumulative Day of Simulation[],Month[],Day of Month[],DST Indicator[1=yes 0=no],DayType  ! When Daily Meters Requested
4,2,Cumulative Days of Simulation[],Month[]  ! When Monthly Meters Requested
5,1,Cumulative Days of Simulation[] ! When Run Period Meters Requested
6,1,Calendar Year of Simulation[] ! When Annual Meters Requested
51,9,InteriorLights:Electricity [J] !Monthly [Value,Min,Day,Hour,Minute,Max,Day,Hour,Minute]
88,9,InteriorEquipment:Electricity [J] !Monthly [Value,Min,Day,Hour,Minute,Max,Day,Hour,Minute]
206,9,Fans:Electricity [J] !Monthly [Value,Min,Day,Hour,Minute,Max,Day,Hour,Minute]
726,9,Heating:Electricity [J] !Monthly [Value,Min,Day,Hour,Minute,Max,Day,Hour,Minute]
688,9,Cooling:Electricity [J] !Monthly [Value,Min,Day,Hour,Minute,Max,Day,Hour,Minute]
543,9,ElectricityNet:Facility [J] !Monthly [Value,Min,Day,Hour,Minute,Max,Day,Hour,Minute]
End of Data Dictionary
1,GREAT FALLS INTL ARPT ANN HTG 99.6% CONDNS DB HVAC Sizing Pass 1,  47.47,-111.38,  -7.00,1117.00
4,1, 1
51,0.0,0.0,21, 1,15,0.0,21, 1,15
88,31956164.38356158,332876.71232876708,21, 1,15,332876.71232876708,21, 1,15
206,14357900.89217972,149561.46762687237,21, 1,15,149561.46762687237,21, 1,15
543,695984593.3879103,6092009.139977671,21, 1,15,7742629.813245824,21,24,60
688,0.0,0.0,21, 1,15,0.0,21, 1,15
726,648752528.1121693,5599670.960022031,21, 1,15,7250291.633290184,21,24,60
1,GREAT FALLS INTL ARPT ANN HTG 99% CONDNS DB HVAC Sizing Pass 1,  47.47,-111.38,  -7.00,1117.00
4,1, 1
51,0.0,0.0,21, 1,15,0.0,21, 1,15
88,31956164.38356158,332876.71232876708,21, 1,15,332876.71232876708,21, 1,15
206,14357900.89217972,149561.46762687237,21, 1,15,149561.46762687237,21, 1,15
543,625583427.7919159,5369108.337847645,21, 1,15,7000640.990058427,21,24,60
688,0.0,0.0,21, 1,15,0.0,21, 1,15
726,578351362.5161744,4876770.1578920059,21, 1,15,6508302.810102787,21,24,60
1,GREAT FALLS INTL ARPT ANN CLG .4% CONDNS DB=>MWB HVAC Sizing Pass 1,  47.47,-111.38,  -7.00,1117.00
4,1, 7
51,0.0,0.0,21, 1,15,0.0,21, 1,15
88,103805315.74356179,1081305.372328767,21, 1,15,1081305.372328767,21, 1,15
206,543683.4624000009,5663.3694,21, 1,15,5663.3694,21, 1,15
543,105225525.41758438,1095330.8431001378,21,13,30,1096868.741728767,21, 1,15
688,0.0,0.0,21, 1,15,0.0,21, 1,15
726,0.0,0.0,21, 1,15,0.0,21, 1,15
1,GREAT FALLS INTL ARPT ANN CLG 1% CONDNS DB=>MWB HVAC Sizing Pass 1,  47.47,-111.38,  -7.00,1117.00
4,1, 7
51,0.0,0.0,21, 1,15,0.0,21, 1,15
88,103805315.74356179,1081305.372328767,21, 1,15,1081305.372328767,21, 1,15
206,543683.4624000009,5663.3694,21, 1,15,5663.3694,21, 1,15
543,105225336.6864888,1095324.3244969955,21,13,30,1096868.741728767,21, 1,15
688,0.0,0.0,21, 1,15,0.0,21, 1,15
726,0.0,0.0,21, 1,15,0.0,21, 1,15
1,GREAT FALLS INTL ARPT ANN HTG 99.6% CONDNS DB,  47.47,-111.38,  -7.00,1117.00
4,1, 1
51,0.0,0.0,21, 1,15,0.0,21, 1,15
88,31956164.38356158,332876.71232876708,21, 1,15,332876.71232876708,21, 1,15
206,14357900.89217972,149561.46762687237,21, 1,15,149561.46762687237,21, 1,15
543,696206762.1125336,6094637.045640751,21, 1,15,7744796.669115411,21,24,60
688,0.0,0.0,21, 1,15,0.0,21, 1,15
726,648974696.8367922,5602298.865685111,21, 1,15,7252458.48915977,21,24,60
1,GREAT FALLS INTL ARPT ANN HTG 99% CONDNS DB,  47.47,-111.38,  -7.00,1117.00
4,1, 1
51,0.0,0.0,21, 1,15,0.0,21, 1,15
88,31956164.38356158,332876.71232876708,21, 1,15,332876.71232876708,21, 1,15
206,14357900.89217972,149561.46762687237,21, 1,15,149561.46762687237,21, 1,15
543,625583260.3610255,5369106.356443556,21, 1,15,7000639.352680229,21,24,60
688,0.0,0.0,21, 1,15,0.0,21, 1,15
726,578351195.0852845,4876768.176487916,21, 1,15,6508301.172724589,21,24,60
1,GREAT FALLS INTL ARPT ANN CLG .4% CONDNS DB=>MWB,  47.47,-111.38,  -7.00,1117.00
4,1, 7
51,0.0,0.0,21, 1,15,0.0,21, 1,15
88,103805315.74356179,1081305.372328767,21, 1,15,1081305.372328767,21, 1,15
206,543683.4624000009,5663.3694,21, 1,15,5663.3694,21, 1,15
543,105225525.41758438,1095330.8431001378,21,13,30,1096868.741728767,21, 1,15
688,0.0,0.0,21, 1,15,0.0,21, 1,15
726,0.0,0.0,21, 1,15,0.0,21, 1,15
1,GREAT FALLS INTL ARPT ANN CLG 1% CONDNS DB=>MWB,  47.47,-111.38,  -7.00,1117.00
4,1, 7
51,0.0,0.0,21, 1,15,0.0,21, 1,15
88,103805315.74356179,1081305.372328767,21, 1,15,1081305.372328767,21, 1,15
206,543683.4624000009,5663.3694,21, 1,15,5663.3694,21, 1,15
543,105225336.6864888,1095324.3244969955,21,13,30,1096868.741728767,21, 1,15
688,0.0,0.0,21, 1,15,0.0,21, 1,15
726,0.0,0.0,21, 1,15,0.0,21, 1,15
1,ANNUAL,  47.47,-111.38,  -7.00,1117.00
4,31, 1
51,0.0,0.0, 1, 1,15,0.0, 1, 1,15
88,990641095.890461,332876.71232876708, 1, 1,15,332876.71232876708, 1, 1,15
206,249020883.03912098,5663.3694, 1,12,15,149561.46762687239,13, 1,15
543,9410313598.341357,346653.91136092689, 6,13,30,14489232.756287845,13, 1,45
688,0.0,0.0, 1, 1,15,0.0, 1, 1,15
726,8142500504.634761,0.0, 1,12,15,13996894.576332206,13, 1,45
4,59, 2
51,0.0,0.0, 1, 1,15,0.0, 1, 1,15
88,894772602.739769,332876.71232876708, 1, 1,15,332876.71232876708, 1, 1,15
206,232312367.56548856,5663.3694,12,15,15,149561.46762687237, 1, 1,15
543,7899734022.593634,346727.2636488319,25,13,30,7784763.937414566, 1, 8,45
688,0.0,0.0, 1, 1,15,0.0, 1, 1,15
726,6747454588.300676,0.0,12,15,15,7292425.757458925, 1, 8,45
4,90, 3
51,0.0,0.0, 1, 1,15,0.0, 1, 1,15
88,990641095.890461,332876.71232876708, 1, 1,15,332876.71232876708, 1, 1,15
206,218925945.35672713,5663.3694, 1,13,30,149561.46762687237, 1, 1,15
543,6730894015.942217,346582.5726296415,16,13,30,7423216.184402547, 5, 2,45
688,0.0,0.0, 1, 1,15,0.0, 1, 1,15
726,5493628691.488051,0.0, 1,13,30,6930878.004446907, 5, 2,45
4,120, 4
51,0.0,0.0, 1, 1,15,0.0, 1, 1,15
88,958684931.506897,332876.71232876708, 1, 1,15,332876.71232876708, 1, 1,15
206,97987562.57253538,5663.3694, 1,13,30,149561.46762687237, 4, 6,60
543,3308108722.6431167,346731.40709894159, 2,13,30,4591940.240289987,29, 5,60
688,0.0,0.0, 1, 1,15,0.0, 1, 1,15
726,2224791607.8654534,0.0, 1,13,30,4099602.060334348,29, 5,60
4,151, 5
51,0.0,0.0, 1, 1,15,0.0, 1, 1,15
88,990641095.890461,332876.71232876708, 1, 1,15,332876.71232876708, 1, 1,15
206,81654394.94232926,5663.3694, 1,10,30,149561.46762687237, 1, 1,15
543,2480315690.629957,346798.7016010404, 1,13,30,3791599.88359298, 9, 5,60
688,37213340.65268201,0.0, 1, 1,15,652197.5216278002,19,17,15
726,1343451748.1193157,0.0, 1,10,30,3299261.70363734, 9, 5,60
4,181, 6
51,0.0,0.0, 1, 1,15,0.0, 1, 1,15
88,958684931.506897,332876.71232876708, 1, 1,15,332876.71232876708, 1, 1,15
206,35553052.8880632,5663.3694, 1, 1,15,25277.689879049452, 2, 4,30
543,1515608949.759573,346910.02443254887, 6,13,30,2039002.3805465848,17, 5,15
688,423938986.2874543,0.0, 1, 1,15,1096796.1608192044,29,16,45
726,71066942.42213194,0.0, 1, 1,15,1670947.9783387678,17, 5,15
4,212, 7
51,0.0,0.0, 1, 1,15,0.0, 1, 1,15
88,990641095.890461,332876.71232876708, 1, 1,15,332876.71232876708, 1, 1,15
206,41930974.61240927,5663.369399999998,21, 3,30,66369.8699075859,17,17,30
543,1789268125.3197547,346894.1370597577, 8,13,30,2170991.0174987318,17,17,15
688,729193325.7564683,0.0, 1, 1,15,1763210.3359772624,17,17,15
726,248074.60205175135,0.0, 1, 1,15,248074.60205175135,27, 1,15
4,243, 8
51,0.0,0.0, 1, 1,15,0.0, 1, 1,15
88,990641095.890461,332876.71232876708, 1, 1,15,332876.71232876708, 1, 1,15
206,45910172.87040394,5663.3694, 1, 1,15,51051.09861216284, 6,17,15
543,1865517527.7617448,346828.18131922979,18,14,15,1968982.4765876078, 6,17,15
688,798275529.5052689,0.0, 1, 1,15,1576361.583542126, 6,17,15
726,3294596.11352757,0.0, 1, 1,15,263036.6832719291,18, 6,15
4,273, 9
51,0.0,0.0, 1, 1,15,0.0, 1, 1,15
88,958684931.506897,332876.71232876708, 1, 1,15,332876.71232876708, 1, 1,15
206,37705645.77700236,5663.3694, 1, 1,15,149561.46762687237,17, 3,60
543,1634894678.7967523,346760.17630532899,16,13,30,2076024.3338783545,19, 6,60
688,319888207.71898189,0.0, 1, 1,15,1507897.8148778619, 2,17,45
726,291904876.7238283,0.0, 1, 1,15,1707969.9316705378,19, 6,60
4,304,10
51,0.0,0.0, 1, 1,15,0.0, 1, 1,15
88,990641095.890461,332876.71232876708, 1, 1,15,332876.71232876708, 1, 1,15
206,75930172.14066343,5663.3694, 1, 1,15,149561.46762687237, 4, 2,15
543,2534732456.352246,346704.9819120091,10,13,30,3972043.8842748098,10, 7,45
688,1354681.0324101179,0.0, 1, 1,15,196759.15610861989,18,17,30
726,1438970497.8623312,0.0, 1, 1,15,3480605.70431917,10, 7,45
4,334,11
51,0.0,0.0, 1, 1,15,0.0, 1, 1,15
88,958684931.506897,332876.71232876708, 1, 1,15,332876.71232876708, 1, 1,15
206,192342700.28480906,5663.3694, 1,11,60,149561.46762687237, 2, 4,30
543,5614399101.5146479,346771.18094155428, 3,13,15,6270550.929091819,27, 5,60
688,0.0,0.0, 1, 1,15,0.0, 1, 1,15
726,4436203966.610199,0.0, 1,11,60,5778212.749136179,27, 5,60
4,365,12
51,0.0,0.0, 1, 1,15,0.0, 1, 1,15
88,990641095.890461,332876.71232876708, 1, 1,15,332876.71232876708, 1, 1,15
206,315789989.2057836,5663.3694, 6,14,15,149561.46762687237, 1, 1,15
543,10179518317.247376,346972.1362317958, 6,15,30,8471100.92095817,31, 9,15
688,0.0,0.0, 1, 1,15,0.0, 1, 1,15
726,8844860573.76417,0.0, 6,14,15,7978762.74100253,31, 9,15
End of Data
 Number of Records Written=         120
