Program Version,EnergyPlus, Version 9.5.0-de239b2e5f, YMD=2024.05.16 10:30
1,5,Environment Title[],Latitude[deg],Longitude[deg],Time Zone[],Elevation[m]
2,8,Day of Simulation[],Month[],Day of Month[],DST Indicator[1=yes 0=no],Hour[],StartMinute[],EndMinute[],DayType
3,5,Cumulative Day of Simulation[],Month[],Day of Month[],DST Indicator[1=yes 0=no],DayType  ! When Daily Meters Requested
4,2,Cumulative Days of Simulation[],Month[]  ! When Monthly Meters Requested
5,1,Cumulative Days of Simulation[] ! When Run Period Meters Requested
6,1,Calendar Year of Simulation[] ! When Annual Meters Requested
51,9,InteriorLights:Electricity [J] !Monthly [Value,Min,Day,Hour,Minute,Max,Day,Hour,Minute]
88,9,InteriorEquipment:Electricity [J] !Monthly [Value,Min,Day,Hour,Minute,Max,Day,Hour,Minute]
206,9,Fans:Electricity [J] !Monthly [Value,Min,Day,Hour,Minute,Max,Day,Hour,Minute]
726,9,Heating:Electricity [J] !Monthly [Value,Min,Day,Hour,Minute,Max,Day,Hour,Minute]
688,9,Cooling:Electricity [J] !Monthly [Value,Min,Day,Hour,Minute,Max,Day,Hour,Minute]
543,9,ElectricityNet:Facility [J] !Monthly [Value,Min,Day,Hour,Minute,Max,Day,Hour,Minute]
End of Data Dictionary
1,GREAT FALLS INTL ARPT ANN HTG 99.6% CONDNS DB HVAC Sizing Pass 1,  47.47,-111.38,  -7.00,1117.00
4,1, 1
51,0.0,0.0,21, 1,15,0.0,21, 1,15
88,31956164.38356158,332876.71232876708,21, 1,15,332876.71232876708,21, 1,15
206,14200535.467141755,147922.24444939296,21, 1,15,147922.24444939296,21, 1,15
543,612873858.716579,5226124.688637987,21, 1,15,6877058.648731501,21,24,60
688,0.0,0.0,21, 1,15,0.0,21, 1,15
726,565799158.8658758,4735425.7318598269,21, 1,15,6386359.691953341,21,24,60
1,GREAT FALLS INTL ARPT ANN HTG 99% CONDNS DB HVAC Sizing Pass 1,  47.47,-111.38,  -7.00,1117.00
4,1, 1
51,0.0,0.0,21, 1,15,0.0,21, 1,15
88,31956164.38356158,332876.71232876708,21, 1,15,332876.71232876708,21, 1,15
206,14200535.467141755,147922.24444939296,21, 1,15,147922.24444939296,21, 1,15
543,555946928.460284,4643603.823009431,21, 1,15,6275405.529031981,21,24,60
688,0.0,0.0,21, 1,15,0.0,21, 1,15
726,508872228.60958096,4152904.866231271,21, 1,15,5784706.5722538209,21,24,60
1,GREAT FALLS INTL ARPT ANN CLG .4% CONDNS DB=>MWB HVAC Sizing Pass 1,  47.47,-111.38,  -7.00,1117.00
4,1, 7
51,0.0,0.0,21, 1,15,0.0,21, 1,15
88,103805315.74356179,1081305.372328767,21, 1,15,1081305.372328767,21, 1,15
206,543683.4624000009,5663.3694,21, 1,15,5663.3694,21, 1,15
543,105225525.41758438,1095330.8431001378,21,13,30,1096868.741728767,21, 1,15
688,0.0,0.0,21, 1,15,0.0,21, 1,15
726,0.0,0.0,21, 1,15,0.0,21, 1,15
1,GREAT FALLS INTL ARPT ANN CLG 1% CONDNS DB=>MWB HVAC Sizing Pass 1,  47.47,-111.38,  -7.00,1117.00
4,1, 7
51,0.0,0.0,21, 1,15,0.0,21, 1,15
88,103805315.74356179,1081305.372328767,21, 1,15,1081305.372328767,21, 1,15
206,543683.4624000009,5663.3694,21, 1,15,5663.3694,21, 1,15
543,105225336.6864888,1095324.3244969955,21,13,30,1096868.741728767,21, 1,15
688,0.0,0.0,21, 1,15,0.0,21, 1,15
726,0.0,0.0,21, 1,15,0.0,21, 1,15
1,GREAT FALLS INTL ARPT ANN HTG 99.6% CONDNS DB,  47.47,-111.38,  -7.00,1117.00
4,1, 1
51,0.0,0.0,21, 1,15,0.0,21, 1,15
88,31956164.38356158,332876.71232876708,21, 1,15,332876.71232876708,21, 1,15
206,14200535.467141755,147922.24444939296,21, 1,15,147922.24444939296,21, 1,15
543,613096029.3870756,5228752.128723449,21, 1,15,6879226.023846392,21,24,60
688,0.0,0.0,21, 1,15,0.0,21, 1,15
726,566021329.5363722,4738053.171945289,21, 1,15,6388527.067068231,21,24,60
1,GREAT FALLS INTL ARPT ANN HTG 99% CONDNS DB,  47.47,-111.38,  -7.00,1117.00
4,1, 1
51,0.0,0.0,21, 1,15,0.0,21, 1,15
88,31956164.38356158,332876.71232876708,21, 1,15,332876.71232876708,21, 1,15
206,14200535.467141755,147922.24444939296,21, 1,15,147922.24444939296,21, 1,15
543,555946761.0370945,4643601.841995249,21, 1,15,6275403.891556661,21,24,60
688,0.0,0.0,21, 1,15,0.0,21, 1,15
726,508872061.18639138,4152902.885217088,21, 1,15,5784704.9347785,21,24,60
1,GREAT FALLS INTL ARPT ANN CLG .4% CONDNS DB=>MWB,  47.47,-111.38,  -7.00,1117.00
4,1, 7
51,0.0,0.0,21, 1,15,0.0,21, 1,15
88,103805315.74356179,1081305.372328767,21, 1,15,1081305.372328767,21, 1,15
206,543683.4624000009,5663.3694,21, 1,15,5663.3694,21, 1,15
543,105225525.41758438,1095330.8431001378,21,13,30,1096868.741728767,21, 1,15
688,0.0,0.0,21, 1,15,0.0,21, 1,15
726,0.0,0.0,21, 1,15,0.0,21, 1,15
1,GREAT FALLS INTL ARPT ANN CLG 1% CONDNS DB=>MWB,  47.47,-111.38,  -7.00,1117.00
4,1, 7
51,0.0,0.0,21, 1,15,0.0,21, 1,15
88,103805315.74356179,1081305.372328767,21, 1,15,1081305.372328767,21, 1,15
206,543683.4624000009,5663.3694,21, 1,15,5663.3694,21, 1,15
543,105225336.6864888,1095324.3244969955,21,13,30,1096868.741728767,21, 1,15
688,0.0,0.0,21, 1,15,0.0,21, 1,15
726,0.0,0.0,21, 1,15,0.0,21, 1,15
1,ANNUAL,  47.47,-111.38,  -7.00,1117.00
4,31, 1
51,0.0,0.0, 1, 1,15,0.0, 1, 1,15
88,990641095.890461,332876.71232876708, 1, 1,15,332876.71232876708, 1, 1,15
206,244281613.40055869,5663.3694, 1,11,60,147922.24444939296, 1, 7,30
543,8495628053.897147,346653.91136092689, 6,13,30,14188304.10370696,13, 1,45
688,0.0,0.0, 1, 1,15,0.0, 1, 1,15
726,7232554229.829134,0.0, 1,11,60,13697605.146928803,13, 1,45
4,59, 2
51,0.0,0.0, 1, 1,15,0.0, 1, 1,15
88,894772602.739769,332876.71232876708, 1, 1,15,332876.71232876708, 1, 1,15
206,227143581.20621864,5663.3694,12,14,60,147922.24444939296, 1, 1,15
543,7158060975.340352,346721.6498409857,24,13,60,7062524.947857662, 1, 8,45
688,0.0,0.0, 1, 1,15,0.0, 1, 1,15
726,6010950327.406637,0.0,12,14,60,6571825.991079502, 1, 8,45
4,90, 3
51,0.0,0.0, 1, 1,15,0.0, 1, 1,15
88,990641095.890461,332876.71232876708, 1, 1,15,332876.71232876708, 1, 1,15
206,213640121.948553,5663.3694, 1,12,60,147922.24444939296, 1, 1,15
543,6110089591.219013,346582.5726296415,16,13,30,6682799.955321094, 5, 2,60
688,0.0,0.0, 1, 1,15,0.0, 1, 1,15
726,4878110090.173015,0.0, 1,12,60,6192100.998542934, 5, 2,60
4,120, 4
51,0.0,0.0, 1, 1,15,0.0, 1, 1,15
88,958684931.506897,332876.71232876708, 1, 1,15,332876.71232876708, 1, 1,15
206,94947210.0697539,5663.3694, 1,13,30,147922.24444939296, 4, 6,60
543,3032207242.851636,346731.40709894159, 2,13,30,4178737.0586068078,29, 6,15
688,0.0,0.0, 1, 1,15,0.0, 1, 1,15
726,1951930480.5767649,0.0, 1,13,30,3688038.1018286475,29, 6,15
4,151, 5
51,0.0,0.0, 1, 1,15,0.0, 1, 1,15
88,990641095.890461,332876.71232876708, 1, 1,15,332876.71232876708, 1, 1,15
206,79785936.19308327,5663.3694, 1,10,30,147922.24444939296, 1, 1,15
543,2270134343.4956939,346798.7016010404, 1,13,30,3471218.3981244165, 9, 5,60
688,45920592.091108199,0.0, 1, 1,15,726080.046206244,19,17,15
726,1126431608.2959018,0.0, 1,10,30,2980519.4413462558, 9, 5,60
4,181, 6
51,0.0,0.0, 1, 1,15,0.0, 1, 1,15
88,958684931.506897,332876.71232876708, 1, 1,15,332876.71232876708, 1, 1,15
206,35857657.33694852,5663.3694, 1, 1,15,25054.252258011024, 2, 5,45
543,1529507574.7718242,346936.4878686837,18,13,30,1869591.3483097165,17, 5,30
688,461896039.1407487,0.0, 1, 1,15,1111970.3291336834,29,16,45
726,46703910.13219888,0.0, 1, 1,15,1501760.383722938,17, 5,30
4,212, 7
51,0.0,0.0, 1, 1,15,0.0, 1, 1,15
88,990641095.890461,332876.71232876708, 1, 1,15,332876.71232876708, 1, 1,15
206,42504303.70112469,5663.369399999998,21, 3,30,65547.06920231674,17,17,30
543,1820882486.0109537,346894.1370597577, 8,13,30,2149161.2180788617,17,17,15
688,760237183.3145596,0.0, 1, 1,30,1742498.8379709228,17,17,15
726,245248.64644540224,0.0, 1, 1,15,245248.64644540224,27, 1,15
4,243, 8
51,0.0,0.0, 1, 1,15,0.0, 1, 1,15
88,990641095.890461,332876.71232876708, 1, 1,15,332876.71232876708, 1, 1,15
206,46586554.16711201,5663.3694, 1, 1,30,50917.24899524983, 6,17,15
543,1909978475.8507798,346828.18131922979,18,14,15,1961349.2530812417, 6,17,15
688,844694536.3258,0.0, 1, 1,30,1568862.2096526728, 6,17,15
726,660156.0853221765,0.0, 1, 1,15,118914.87479146583,18, 6,30
4,273, 9
51,0.0,0.0, 1, 1,15,0.0, 1, 1,15
88,958684931.506897,332876.71232876708, 1, 1,15,332876.71232876708, 1, 1,15
206,36447538.8056384,5663.3694, 1, 1,15,147922.24444939296,17, 3,60
543,1571522177.2236934,346760.17630532899,16,13,30,1893322.8946343263, 2,16,60
688,343124875.3572721,0.0, 1, 1,15,1504514.0968533285, 2,16,60
726,206553814.48384223,0.0, 1, 1,15,1518642.7604827719,19, 6,60
4,304,10
51,0.0,0.0, 1, 1,15,0.0, 1, 1,15
88,990641095.890461,332876.71232876708, 1, 1,15,332876.71232876708, 1, 1,15
206,72175686.69279346,5663.3694, 1, 1,15,147922.24444939296, 4, 2,15
543,2317878881.6156399,346702.1782971781,10,13,15,3622146.4997363474,10, 7,45
688,2129828.034551339,0.0, 1, 1,15,270144.171711679,18,17,30
726,1225096261.5714637,0.0, 1, 1,15,3132347.542958187,10, 7,45
4,334,11
51,0.0,0.0, 1, 1,15,0.0, 1, 1,15
88,958684931.506897,332876.71232876708, 1, 1,15,332876.71232876708, 1, 1,15
206,186421710.06147317,5663.3694, 1,11,45,147922.24444939296, 2, 4,30
543,5114052326.717186,346771.18094155428, 3,13,15,5611701.032046606,27, 5,60
688,0.0,0.0, 1, 1,15,0.0, 1, 1,15
726,3941778182.036073,0.0, 1,11,45,5121002.075268446,27, 5,60
4,365,12
51,0.0,0.0, 1, 1,15,0.0, 1, 1,15
88,990641095.890461,332876.71232876708, 1, 1,15,332876.71232876708, 1, 1,15
206,311037741.02597817,5663.3694, 2,14,30,147922.24444939296, 1, 1,15
543,9267325225.439633,346854.5552762625, 2,14,30,7494755.24421396,31, 9,15
688,0.0,0.0, 1, 1,15,0.0, 1, 1,15
726,7937419730.136244,0.0, 2,14,30,7004056.2874358,31, 9,15
End of Data
 Number of Records Written=         120
