Program Version,EnergyPlus, Version 9.5.0-de239b2e5f, YMD=2024.05.16 10:30
1,5,Environment Title[],Latitude[deg],Longitude[deg],Time Zone[],Elevation[m]
2,8,Day of Simulation[],Month[],Day of Month[],DST Indicator[1=yes 0=no],Hour[],StartMinute[],EndMinute[],DayType
3,5,Cumulative Day of Simulation[],Month[],Day of Month[],DST Indicator[1=yes 0=no],DayType  ! When Daily Meters Requested
4,2,Cumulative Days of Simulation[],Month[]  ! When Monthly Meters Requested
5,1,Cumulative Days of Simulation[] ! When Run Period Meters Requested
6,1,Calendar Year of Simulation[] ! When Annual Meters Requested
50,9,InteriorLights:Electricity [J] !Monthly [Value,Min,Day,Hour,Minute,Max,Day,Hour,Minute]
87,9,InteriorEquipment:Electricity [J] !Monthly [Value,Min,Day,Hour,Minute,Max,Day,Hour,Minute]
205,9,Fans:Electricity [J] !Monthly [Value,Min,Day,Hour,Minute,Max,Day,Hour,Minute]
721,9,Heating:Electricity [J] !Monthly [Value,Min,Day,Hour,Minute,Max,Day,Hour,Minute]
683,9,Cooling:Electricity [J] !Monthly [Value,Min,Day,Hour,Minute,Max,Day,Hour,Minute]
541,9,ElectricityNet:Facility [J] !Monthly [Value,Min,Day,Hour,Minute,Max,Day,Hour,Minute]
End of Data Dictionary
1,GREAT FALLS INTL ARPT ANN HTG 99.6% CONDNS DB HVAC Sizing Pass 1,  47.47,-111.38,  -7.00,1117.00
4,1, 1
50,0.0,0.0,21, 1,15,0.0,21, 1,15
87,31956164.38356158,332876.71232876708,21, 1,15,332876.71232876708,21, 1,15
205,14886175.241157186,155064.32542872084,21, 1,15,155064.32542872084,21, 1,15
541,684884015.7511826,5891804.222304593,21, 1,15,7989923.643261374,21,24,15
683,0.0,0.0,21, 1,15,0.0,21, 1,15
721,630940087.021687,5393963.184547104,21, 1,15,7090838.777968493,21,24,60
1,GREAT FALLS INTL ARPT ANN HTG 99% CONDNS DB HVAC Sizing Pass 1,  47.47,-111.38,  -7.00,1117.00
4,1, 1
50,0.0,0.0,21, 1,15,0.0,21, 1,15
87,31956164.38356158,332876.71232876708,21, 1,15,332876.71232876708,21, 1,15
205,14886175.241157186,155064.32542872084,21, 1,15,155064.32542872084,21, 1,15
541,626688249.2392798,5296178.704888466,21, 1,15,7375468.309954055,21,24,15
683,0.0,0.0,21, 1,15,0.0,21, 1,15
721,572744315.1801726,4798337.667130977,21, 1,15,6476043.486736889,21,24,60
1,GREAT FALLS INTL ARPT ANN CLG .4% CONDNS DB=>MWB HVAC Sizing Pass 1,  47.47,-111.38,  -7.00,1117.00
4,1, 7
50,0.0,0.0,21, 1,15,0.0,21, 1,15
87,103805315.74356179,1081305.372328767,21, 1,15,1081305.372328767,21, 1,15
205,3255966.4299739336,16990.1082,21, 1,45,53894.718381890845,21,17,30
541,169621174.71286375,1107253.5914595065,21, 7,45,2914519.884879658,21,17,45
683,56736474.33288662,0.0,21, 1,45,1373269.4268770356,21,17,15
721,0.0,0.0,21, 1,15,0.0,21, 1,15
1,GREAT FALLS INTL ARPT ANN CLG 1% CONDNS DB=>MWB HVAC Sizing Pass 1,  47.47,-111.38,  -7.00,1117.00
4,1, 7
50,0.0,0.0,21, 1,15,0.0,21, 1,15
87,103805315.74356179,1081305.372328767,21, 1,15,1081305.372328767,21, 1,15
205,2977355.594448737,16990.1082,21, 1,15,44521.45110550425,21,17,30
541,160378254.93442513,1107204.2534659673,21, 8,30,2759361.5265535919,21,17,45
683,47772357.16626308,0.0,21, 1,15,1225376.0609315446,21,17,15
721,0.0,0.0,21, 1,15,0.0,21, 1,15
1,GREAT FALLS INTL ARPT ANN HTG 99.6% CONDNS DB,  47.47,-111.38,  -7.00,1117.00
4,1, 1
50,0.0,0.0,21, 1,15,0.0,21, 1,15
87,31956164.38356158,332876.71232876708,21, 1,15,332876.71232876708,21, 1,15
205,14886175.241157186,155064.32542872084,21, 1,15,155064.32542872084,21, 1,15
541,685106851.9640204,5894425.206840637,21, 1,15,7992104.221969296,21,24,15
683,0.0,0.0,21, 1,15,0.0,21, 1,15
721,631162923.2344972,5396584.169083148,21, 1,15,7093023.26648491,21,24,60
1,GREAT FALLS INTL ARPT ANN HTG 99% CONDNS DB,  47.47,-111.38,  -7.00,1117.00
4,1, 1
50,0.0,0.0,21, 1,15,0.0,21, 1,15
87,31956164.38356158,332876.71232876708,21, 1,15,332876.71232876708,21, 1,15
205,14886175.241157186,155064.32542872084,21, 1,15,155064.32542872084,21, 1,15
541,626688082.5797887,5296176.743080207,21, 1,15,7375466.67852914,21,24,15
683,0.0,0.0,21, 1,15,0.0,21, 1,15
721,572744148.5206937,4798335.705322718,21, 1,15,6476041.852940898,21,24,60
1,GREAT FALLS INTL ARPT ANN CLG .4% CONDNS DB=>MWB,  47.47,-111.38,  -7.00,1117.00
4,1, 7
50,0.0,0.0,21, 1,15,0.0,21, 1,15
87,103805315.74356179,1081305.372328767,21, 1,15,1081305.372328767,21, 1,15
205,3255966.4288747466,16990.1082,21, 1,45,53894.71833333548,21,17,30
541,169621174.66896469,1107253.5914595065,21, 7,45,2914519.8842709769,21,17,45
683,56736474.29008658,0.0,21, 1,45,1373269.4263048655,21,17,15
721,0.0,0.0,21, 1,15,0.0,21, 1,15
1,GREAT FALLS INTL ARPT ANN CLG 1% CONDNS DB=>MWB,  47.47,-111.38,  -7.00,1117.00
4,1, 7
50,0.0,0.0,21, 1,15,0.0,21, 1,15
87,103805315.74356179,1081305.372328767,21, 1,15,1081305.372328767,21, 1,15
205,2977355.5944518477,16990.1082,21, 1,15,44521.45110568839,21,17,30
541,160378254.9346458,1107204.2534659673,21, 8,30,2759361.5265563528,21,17,45
683,47772357.16648065,0.0,21, 1,15,1225376.060934238,21,17,15
721,0.0,0.0,21, 1,15,0.0,21, 1,15
1,ANNUAL,  47.47,-111.38,  -7.00,1117.00
4,31, 1
50,392525124.40407267,25324.201574456874, 1, 1,15,405187.22519131, 1,21,15
87,5315700039.692044,449081.24226129267, 1, 4,15,2765029.9564656417, 1,20,15
205,325300660.7414577,16990.1082, 1, 1,15,155064.32542872084, 1, 7,30
541,13666924232.934784,519644.2058514332, 1, 4,15,8908828.948108362,29, 8,15
683,0.0,0.0, 1, 1,15,0.0, 1, 1,15
721,7508200371.904162,0.0, 1, 1,15,7924572.544318477,11, 4,45
4,59, 2
50,354538822.04238906,25324.201574456874, 1, 1,15,405187.22519131, 1,21,15
87,4801277455.205701,449081.24226129267, 1, 4,15,2765029.9564656417, 1,20,15
205,226012453.79157303,16990.1082, 6,11,45,155064.32542872084, 1, 1,15
541,9654461790.860716,569065.7680657277,27, 3,15,7830774.36057654, 1, 8,45
683,3665129.175070502,0.0, 1, 1,15,278932.6114923953,26,18,15
721,4156379288.5290567,0.0, 6,11,45,6512955.490187623, 4, 4,60
4,90, 3
50,392525124.40407267,25324.201574456874, 1, 1,15,405187.22519131, 1,21,15
87,5315700039.692044,449081.24226129267, 1, 4,15,2765029.9564656417, 1,20,15
205,198750247.77399589,16990.1082, 1, 1,15,155064.32542872084, 1, 1,45
541,8798308232.175663,633150.6653086495,23, 2,15,7047322.328007201, 5, 7,15
683,509892.09660734995,0.0, 1, 1,15,92705.07231129948,28,19,15
721,2766366804.9303519,0.0, 1, 1,15,6309142.641609053, 5, 4,60
4,120, 4
50,379863023.6168448,25324.201574456874, 1, 1,15,405187.22519131, 1,21,15
87,5144225844.863263,449081.24226129267, 1, 4,15,2765029.9564656417, 1,20,15
205,95206532.14238322,16990.1082, 1,10,45,155064.32542872084, 4, 6,60
541,6451319325.649036,519644.2058514332, 7, 4,15,4463014.595377907,29, 6,15
683,121984569.36605549,0.0, 1, 1,15,841143.5676410815, 6,18,30
721,589758115.5380937,0.0, 1,10,45,3485991.0212549564,29, 5,60
4,151, 5
50,392525124.40407267,25324.201574456874, 1, 1,15,405187.22519131, 1,21,15
87,5315700039.692044,449081.24226129267, 1, 4,15,2765029.9564656417, 1,20,15
205,99906029.66808219,16990.1082, 1, 8,45,155064.32542872084, 1, 1,15
541,6725096045.235531,519644.2058514332, 3, 4,15,4517270.786672521,19,20,15
683,463591471.8534195,0.0, 1, 1,15,1346050.8650486023,19,19,15
721,329260428.5211279,0.0, 1, 8,45,2710159.872398141, 8, 4,60
4,181, 6
50,379863023.6168448,25324.201574456874, 1, 1,15,405187.22519131, 1,21,15
87,5144225844.863263,449081.24226129267, 1, 4,15,2765029.9564656417, 1,20,15
205,91638095.60805853,16990.1082, 1, 1,15,101055.73229421734,28,19,15
541,7076697946.551011,519644.2058514332, 1, 4,15,4959058.239775852,28,20,15
683,1340511746.1804088,0.0, 1, 1,15,1708573.033518765,28,19,15
721,457580.2032214619,0.0, 1, 1,15,157134.09240785044,17, 5,60
4,212, 7
50,392525124.40407267,25324.201574456874, 1, 1,15,405187.22519131, 1,21,15
87,5315700039.692044,449081.24226129267, 1, 4,15,2765029.9564656417, 1,20,15
205,126072296.41111227,16990.1082, 1, 2,60,155064.32542872084,14,19,15
541,8084021998.978478,519644.2058514332, 1, 4,15,5477473.98338196,17,20,15
683,2125712043.9411953,0.0, 1, 2,60,2187563.2503131164,17,16,60
721,0.0,0.0, 1, 1,15,0.0, 1, 1,15
4,243, 8
50,392525124.40407267,25324.201574456874, 1, 1,15,405187.22519131, 1,21,15
87,5315700039.692044,449081.24226129267, 1, 4,15,2765029.9564656417, 1,20,15
205,114598095.3259801,16990.1082, 1, 2,45,155064.32542872084, 6,17,15
541,7769905048.726314,519644.2058514332, 1, 4,15,5312843.114892886, 5,20,15
683,1822927815.8504649,0.0, 1, 2,45,2124707.3158832916, 6,17,15
721,0.0,0.0, 1, 1,15,0.0, 1, 1,15
4,273, 9
50,379863023.6168448,25324.201574456874, 1, 1,15,405187.22519131, 1,21,15
87,5144225844.863263,449081.24226129267, 1, 4,15,2765029.9564656417, 1,20,15
205,87054658.93631995,16990.1082, 1, 1,30,148288.66098102963, 2,18,15
541,6768215240.202114,519644.2058514332, 1, 4,15,4991294.485682084, 2,19,15
683,1028196723.7672552,0.0, 1, 1,30,2068998.2803773313, 2,18,15
721,8527352.524195368,0.0, 1, 1,15,538057.6430133833,19, 5,60
4,304,10
50,392525124.40407267,25324.201574456874, 1, 1,15,405187.22519131, 1,21,15
87,5315700039.692044,449081.24226129267, 1, 4,15,2765029.9564656417, 1,20,15
205,86016963.41918856,16990.1082, 1, 1,15,155064.32542872084, 4, 2,30
541,6348221799.161496,519644.2058514332, 1, 4,15,3871877.816409159,10, 7,45
683,196705872.61027614,0.0, 1, 1,15,1037941.6011845239,18,17,15
721,232679949.53787778,0.0, 1, 1,15,2534857.609665285,10, 5,60
4,334,11
50,379863023.6168448,25324.201574456874, 1, 1,15,405187.22519131, 1,21,15
87,5144225844.863263,449081.24226129267, 1, 4,15,2765029.9564656417, 1,20,15
205,173885686.66201446,16990.1082, 1, 7,15,155064.32542872084, 2, 4,30
541,7812384165.075198,519644.2058514332, 4, 4,15,6174666.669230268,27, 8,15
683,5113095.447038467,0.0, 1, 1,15,234630.20061010199, 4,17,15
721,1988492391.949091,0.0, 1, 7,15,5242066.29755019,27, 4,60
4,365,12
50,392525124.40407267,25324.201574456874, 1, 1,15,405187.22519131, 1,21,15
87,5315700039.692044,449081.24226129267, 1, 4,15,2765029.9564656417, 1,20,15
205,311820849.96830698,16990.1082, 1,11,30,155064.32542872084, 1, 1,15
541,11756305686.847807,677772.3748396855,10, 3,15,8482086.011888862,31, 9,15
683,0.0,0.0, 1, 1,15,0.0, 1, 1,15
721,5611275174.324779,0.0, 1,11,30,6904786.560494949,29, 4,45
End of Data
 Number of Records Written=         120
