Program Version,EnergyPlus, Version 9.5.0-de239b2e5f, YMD=2024.05.16 10:30
1,5,Environment Title[],Latitude[deg],Longitude[deg],Time Zone[],Elevation[m]
2,8,Day of Simulation[],Month[],Day of Month[],DST Indicator[1=yes 0=no],Hour[],StartMinute[],EndMinute[],DayType
3,5,Cumulative Day of Simulation[],Month[],Day of Month[],DST Indicator[1=yes 0=no],DayType  ! When Daily Meters Requested
4,2,Cumulative Days of Simulation[],Month[]  ! When Monthly Meters Requested
5,1,Cumulative Days of Simulation[] ! When Run Period Meters Requested
6,1,Calendar Year of Simulation[] ! When Annual Meters Requested
51,9,InteriorLights:Electricity [J] !Monthly [Value,Min,Day,Hour,Minute,Max,Day,Hour,Minute]
88,9,InteriorEquipment:Electricity [J] !Monthly [Value,Min,Day,Hour,Minute,Max,Day,Hour,Minute]
206,9,Fans:Electricity [J] !Monthly [Value,Min,Day,Hour,Minute,Max,Day,Hour,Minute]
751,9,Heating:Electricity [J] !Monthly [Value,Min,Day,Hour,Minute,Max,Day,Hour,Minute]
790,9,Cooling:Electricity [J] !Monthly [Value,Min,Day,Hour,Minute,Max,Day,Hour,Minute]
543,9,ElectricityNet:Facility [J] !Monthly [Value,Min,Day,Hour,Minute,Max,Day,Hour,Minute]
702,9,NaturalGas:Facility [J] !Monthly [Value,Min,Day,Hour,Minute,Max,Day,Hour,Minute]
End of Data Dictionary
1,GREAT FALLS INTL ARPT ANN HTG 99.6% CONDNS DB HVAC Sizing Pass 1,  47.47,-111.38,  -7.00,1117.00
4,1, 1
51,0.0,0.0,21, 1,15,0.0,21, 1,15
88,31956164.38356158,332876.71232876708,21, 1,15,332876.71232876708,21, 1,15
206,7034084.989719529,60312.26769214539,21, 1,15,78783.45780502966,21,24,60
543,39908249.37328117,403088.9800209125,21, 1,15,421560.1701337967,21,24,60
702,717009491.8107824,6037188.705126662,21, 1,15,8077743.2964308359,21,24,60
751,0.0,0.0,21, 1,15,0.0,21, 1,15
790,0.0,0.0,21, 1,15,0.0,21, 1,15
1,GREAT FALLS INTL ARPT ANN HTG 99% CONDNS DB HVAC Sizing Pass 1,  47.47,-111.38,  -7.00,1117.00
4,1, 1
51,0.0,0.0,21, 1,15,0.0,21, 1,15
88,31956164.38356158,332876.71232876708,21, 1,15,332876.71232876708,21, 1,15
206,6396433.197807994,53787.1918523878,21, 1,15,72044.34752867975,21,24,60
543,39270597.58136964,396563.9041811549,21, 1,15,414821.0598574468,21,24,60
702,646566640.8798715,5316348.662765894,21, 1,15,7333258.38064196,21,24,60
751,0.0,0.0,21, 1,15,0.0,21, 1,15
790,0.0,0.0,21, 1,15,0.0,21, 1,15
1,GREAT FALLS INTL ARPT ANN CLG .4% CONDNS DB=>MWB HVAC Sizing Pass 1,  47.47,-111.38,  -7.00,1117.00
4,1, 7
51,0.0,0.0,21, 1,15,0.0,21, 1,15
88,103805315.74356179,1081305.372328767,21, 1,15,1081305.372328767,21, 1,15
206,543683.4624000009,5663.3694,21, 1,15,5663.3694,21, 1,15
543,105225525.41758438,1095330.8431001378,21,13,30,1096868.741728767,21, 1,15
702,0.0,0.0,21, 1,15,0.0,21, 1,15
751,0.0,0.0,21, 1,15,0.0,21, 1,15
790,0.0,0.0,21, 1,15,0.0,21, 1,15
1,GREAT FALLS INTL ARPT ANN CLG 1% CONDNS DB=>MWB HVAC Sizing Pass 1,  47.47,-111.38,  -7.00,1117.00
4,1, 7
51,0.0,0.0,21, 1,15,0.0,21, 1,15
88,103805315.74356179,1081305.372328767,21, 1,15,1081305.372328767,21, 1,15
206,543683.4624000009,5663.3694,21, 1,15,5663.3694,21, 1,15
543,105225336.6864888,1095324.3244969955,21,13,30,1096868.741728767,21, 1,15
702,0.0,0.0,21, 1,15,0.0,21, 1,15
751,0.0,0.0,21, 1,15,0.0,21, 1,15
790,0.0,0.0,21, 1,15,0.0,21, 1,15
1,GREAT FALLS INTL ARPT ANN HTG 99.6% CONDNS DB,  47.47,-111.38,  -7.00,1117.00
4,1, 1
51,0.0,0.0,21, 1,15,0.0,21, 1,15
88,31956164.38356158,332876.71232876708,21, 1,15,332876.71232876708,21, 1,15
206,7036570.782060012,60341.664666511584,21, 1,15,78807.7084330675,21,24,60
543,39910735.165621649,403118.3769952787,21, 1,15,421584.4207618346,21,24,60
702,717284102.9724023,6040436.256077455,21, 1,15,8080422.3187397499,21,24,60
751,0.0,0.0,21, 1,15,0.0,21, 1,15
790,0.0,0.0,21, 1,15,0.0,21, 1,15
1,GREAT FALLS INTL ARPT ANN HTG 99% CONDNS DB,  47.47,-111.38,  -7.00,1117.00
4,1, 1
51,0.0,0.0,21, 1,15,0.0,21, 1,15
88,31956164.38356158,332876.71232876708,21, 1,15,332876.71232876708,21, 1,15
206,6396431.3246233039,53787.16968913612,21, 1,15,72044.32920778473,21,24,60
543,39270595.708184938,396563.8820179032,21, 1,15,414821.04153655187,21,24,60
702,646566433.9448772,5316346.214340823,21, 1,15,7333256.356690813,21,24,60
751,0.0,0.0,21, 1,15,0.0,21, 1,15
790,0.0,0.0,21, 1,15,0.0,21, 1,15
1,GREAT FALLS INTL ARPT ANN CLG .4% CONDNS DB=>MWB,  47.47,-111.38,  -7.00,1117.00
4,1, 7
51,0.0,0.0,21, 1,15,0.0,21, 1,15
88,103805315.74356179,1081305.372328767,21, 1,15,1081305.372328767,21, 1,15
206,543683.4624000009,5663.3694,21, 1,15,5663.3694,21, 1,15
543,105225525.41758438,1095330.8431001378,21,13,30,1096868.741728767,21, 1,15
702,0.0,0.0,21, 1,15,0.0,21, 1,15
751,0.0,0.0,21, 1,15,0.0,21, 1,15
790,0.0,0.0,21, 1,15,0.0,21, 1,15
1,GREAT FALLS INTL ARPT ANN CLG 1% CONDNS DB=>MWB,  47.47,-111.38,  -7.00,1117.00
4,1, 7
51,0.0,0.0,21, 1,15,0.0,21, 1,15
88,103805315.74356179,1081305.372328767,21, 1,15,1081305.372328767,21, 1,15
206,543683.4624000009,5663.3694,21, 1,15,5663.3694,21, 1,15
543,105225336.6864888,1095324.3244969955,21,13,30,1096868.741728767,21, 1,15
702,0.0,0.0,21, 1,15,0.0,21, 1,15
751,0.0,0.0,21, 1,15,0.0,21, 1,15
790,0.0,0.0,21, 1,15,0.0,21, 1,15
1,ANNUAL,  47.47,-111.38,  -7.00,1117.00
4,31, 1
51,0.0,0.0, 1, 1,15,0.0, 1, 1,15
88,990641095.890461,332876.71232876708, 1, 1,15,332876.71232876708, 1, 1,15
206,108897580.08952318,5663.3694, 1,11,60,147794.2542799749,13, 1,15
543,1127689790.7570148,346653.91136092689, 6,13,30,490570.96660874199,13, 1,45
702,10168243980.915432,0.0, 1,11,60,15701523.72075123,13, 1,15
751,0.0,0.0, 1, 1,15,0.0, 1, 1,15
790,0.0,0.0, 1, 1,15,0.0, 1, 1,15
4,59, 2
51,0.0,0.0, 1, 1,15,0.0, 1, 1,15
88,894772602.739769,332876.71232876708, 1, 1,15,332876.71232876708, 1, 1,15
206,91653602.04531996,5663.3694,12,14,60,80825.06361276222, 1, 8,45
543,1011620668.7728043,346716.28153329729,24,13,45,423601.7759415293, 1, 8,45
702,8443448176.232963,0.0,12,14,60,8303284.156502218, 1, 8,45
751,0.0,0.0, 1, 1,15,0.0, 1, 1,15
790,0.0,0.0, 1, 1,15,0.0, 1, 1,15
4,90, 3
51,0.0,0.0, 1, 1,15,0.0, 1, 1,15
88,990641095.890461,332876.71232876708, 1, 1,15,332876.71232876708, 1, 1,15
206,79692239.9297396,5663.3694, 1,12,60,76612.25135073926, 5, 2,60
543,1098031619.0271815,346582.5726296415,16,13,30,419388.9636795063, 5, 2,60
702,6941863298.921569,0.0, 1,12,60,7837885.156706468, 5, 2,60
751,0.0,0.0, 1, 1,15,0.0, 1, 1,15
790,0.0,0.0, 1, 1,15,0.0, 1, 1,15
4,120, 4
51,0.0,0.0, 1, 1,15,0.0, 1, 1,15
88,958684931.506897,332876.71232876708, 1, 1,15,332876.71232876708, 1, 1,15
206,44069512.25707517,5663.3694, 1,13,15,48595.896568287266,29, 6,15
543,1029399064.462194,346731.40709894159, 2,13,30,391372.60889705436,29, 6,15
702,3066601104.9664947,0.0, 1,13,15,4742854.407006055,29, 6,15
751,0.0,0.0, 1, 1,15,0.0, 1, 1,15
790,0.0,0.0, 1, 1,15,0.0, 1, 1,15
4,151, 5
51,0.0,0.0, 1, 1,15,0.0, 1, 1,15
88,990641095.890461,332876.71232876708, 1, 1,15,332876.71232876708, 1, 1,15
206,34984808.459282677,5663.3694, 1,10,15,53920.022057587375,19,18,30
543,1098585692.587823,346798.7016010404, 1,13,30,1125243.119614919,19,17,15
702,1664948385.8184243,0.0, 1,10,15,3868323.0434616168, 9, 5,60
751,0.0,0.0, 1, 1,15,0.0, 1, 1,15
790,45604677.212909709,0.0, 1, 1,15,729873.421816132,19,17,15
4,181, 6
51,0.0,0.0, 1, 1,15,0.0, 1, 1,15
88,958684931.506897,332876.71232876708, 1, 1,15,332876.71232876708, 1, 1,15
206,48727346.596023518,5663.3694, 1, 1,15,81312.77763330765,30,18,60
543,1498176270.4268442,346936.4878686837,18,13,30,1549840.1946965683,29,16,60
702,68772460.7173247,0.0, 1, 1,15,2080257.958232079,17, 5,30
751,0.0,0.0, 1, 1,15,0.0, 1, 1,15
790,464398955.6688932,0.0, 1, 1,15,1127220.263180751,29,16,45
4,212, 7
51,0.0,0.0, 1, 1,15,0.0, 1, 1,15
88,990641095.890461,332876.71232876708, 1, 1,15,332876.71232876708, 1, 1,15
206,68713809.11036347,5663.369399999998,21, 3,30,116318.72400677574,17,17,30
543,1853309010.2260109,346894.1370597577, 8,13,30,2217451.1573923437,17,17,15
702,1427411.2473410208,0.0, 1, 1,15,1427411.2473410208,27, 1,15
751,0.0,0.0, 1, 1,15,0.0, 1, 1,15
790,766699450.7668263,0.0, 1, 1,30,1759806.483895236,17,17,15
4,243, 8
51,0.0,0.0, 1, 1,15,0.0, 1, 1,15
88,990641095.890461,332876.71232876708, 1, 1,15,332876.71232876708, 1, 1,15
206,74813449.4303937,5663.3694, 1, 1,30,107298.25880973884, 6,17,15
543,1944076174.367474,346828.18131922979,18,14,15,2035758.6856399496, 6,17,15
702,2213928.659898084,0.0, 1, 1,15,366385.1933363588,18, 6,30
751,0.0,0.0, 1, 1,15,0.0, 1, 1,15
790,851225495.6645422,0.0, 1, 1,30,1586890.632396892, 6,17,15
4,273, 9
51,0.0,0.0, 1, 1,15,0.0, 1, 1,15
88,958684931.506897,332876.71232876708, 1, 1,15,332876.71232876708, 1, 1,15
206,42534074.992158297,5663.3694, 1, 1,15,104659.479100465, 2,16,60
543,1373070620.011575,346760.17630532899,16,13,30,1967997.484627289, 2,16,60
702,323371051.284789,0.0, 1, 1,15,2177879.8568177807,20, 6,60
751,0.0,0.0, 1, 1,15,0.0, 1, 1,15
790,345140596.4424623,0.0, 1, 1,15,1521794.1327847113, 2,16,60
4,304,10
51,0.0,0.0, 1, 1,15,0.0, 1, 1,15
88,990641095.890461,332876.71232876708, 1, 1,15,332876.71232876708, 1, 1,15
206,35103805.90924748,5663.3694, 1, 1,15,42364.57110871386,10, 7,45
543,1055625770.6735188,346702.1782971781,10,13,15,630673.8991756312,18,17,30
702,2000479716.4575566,0.0, 1, 1,15,4054465.6405684377,10, 7,45
751,0.0,0.0, 1, 1,15,0.0, 1, 1,15
790,2044859.4473876144,0.0, 1, 1,15,265049.3381084478,18,17,30
4,334,11
51,0.0,0.0, 1, 1,15,0.0, 1, 1,15
88,958684931.506897,332876.71232876708, 1, 1,15,332876.71232876708, 1, 1,15
206,69224658.55358707,5663.3694, 1,11,30,64667.74899881647,27, 5,60
543,1055077093.1732261,346769.95724804446,13,13,60,407444.4613275835,27, 5,60
702,5845547613.370951,0.0, 1,11,30,6518348.680382819,27, 5,60
751,0.0,0.0, 1, 1,15,0.0, 1, 1,15
790,0.0,0.0, 1, 1,15,0.0, 1, 1,15
4,365,12
51,0.0,0.0, 1, 1,15,0.0, 1, 1,15
88,990641095.890461,332876.71232876708, 1, 1,15,332876.71232876708, 1, 1,15
206,115139255.41781987,5663.3694, 2,14,30,85732.07245281046,31, 9,15
543,1134007009.69526,346854.5552762625, 2,14,30,428508.78478157756,31, 9,15
702,10857776121.00759,0.0, 2,14,30,8845372.638995085,31, 9,15
751,0.0,0.0, 1, 1,15,0.0, 1, 1,15
790,0.0,0.0, 1, 1,15,0.0, 1, 1,15
End of Data
 Number of Records Written=         140
