Program Version,EnergyPlus, Version 9.5.0-de239b2e5f, YMD=2023.05.07 23:54
1,5,Environment Title[],Latitude[deg],Longitude[deg],Time Zone[],Elevation[m]
2,8,Day of Simulation[],Month[],Day of Month[],DST Indicator[1=yes 0=no],Hour[],StartMinute[],EndMinute[],DayType
3,5,Cumulative Day of Simulation[],Month[],Day of Month[],DST Indicator[1=yes 0=no],DayType  ! When Daily Meters Requested
4,2,Cumulative Days of Simulation[],Month[]  ! When Monthly Meters Requested
5,1,Cumulative Days of Simulation[] ! When Run Period Meters Requested
6,1,Calendar Year of Simulation[] ! When Annual Meters Requested
48,9,InteriorLights:Electricity [kWh] !Monthly [Value,Min,Day,Hour,Minute,Max,Day,Hour,Minute]
85,9,InteriorEquipment:Electricity [kWh] !Monthly [Value,Min,Day,Hour,Minute,Max,Day,Hour,Minute]
202,9,Fans:Electricity [kWh] !Monthly [Value,Min,Day,Hour,Minute,Max,Day,Hour,Minute]
715,9,Heating:Electricity [kWh] !Monthly [Value,Min,Day,Hour,Minute,Max,Day,Hour,Minute]
677,9,Cooling:Electricity [kWh] !Monthly [Value,Min,Day,Hour,Minute,Max,Day,Hour,Minute]
538,9,ElectricityNet:Facility [kWh] !Monthly [Value,Min,Day,Hour,Minute,Max,Day,Hour,Minute]
End of Data Dictionary
1,CHICAGO MIDWAY AP ANN HTG 99.6% CONDNS DB HVAC Sizing Pass 1,  41.78, -87.75,  -6.00, 186.00
4,1, 1
48,0.0000000000000000,0.0000000000000000,21, 1,15,0.0000000000000000,21, 1,15
85,1.2191790575342472,1.2699781849315066E-002,21, 1,15,1.2699781849315066E-002,21, 1,15
202,1.1809461693800805,1.2301522597709147E-002,21, 1,15,1.2301522597709147E-002,21, 1,15
538,66.015588291851770,0.36637720511921579,21, 1,15,0.91885576436208161,21,24,15
677,0.0000000000000000,0.0000000000000000,21, 1,15,0.0000000000000000,21, 1,15
715,61.643299541060159,0.33862589847219166,21, 1,15,0.77961758490418187,21,24,60
1,CHICAGO MIDWAY AP ANN HTG 99% CONDNS DB HVAC Sizing Pass 1,  41.78, -87.75,  -6.00, 186.00
4,1, 1
48,0.0000000000000000,0.0000000000000000,21, 1,15,0.0000000000000000,21, 1,15
85,1.2191790575342472,1.2699781849315066E-002,21, 1,15,1.2699781849315066E-002,21, 1,15
202,1.1809461693800805,1.2301522597709147E-002,21, 1,15,1.2301522597709147E-002,21, 1,15
538,59.606293775066526,0.29567366914805848,21, 1,30,0.85104524658769243,21,24,15
677,0.0000000000000000,0.0000000000000000,21, 1,15,0.0000000000000000,21, 1,15
715,55.234000182251336,0.26792236250103418,21, 1,30,0.71171552673635319,21,24,60
1,CHICAGO MIDWAY AP ANN CLG .4% CONDNS DB=>MWB HVAC Sizing Pass 1,  41.78, -87.75,  -6.00, 186.00
4,1, 7
48,0.0000000000000000,0.0000000000000000,21, 1,15,0.0000000000000000,21, 1,15
85,19.709474472248356,0.20530702575258691,21, 1,15,0.20530702575258691,21, 1,15
202,0.65507283276053119,6.7534413108450457E-003,21, 1,15,7.2834914781249663E-003,21,18,15
538,16.947298806601399,-0.16103618409420453,21,12,60,0.44395741143738615,21,19,45
677,9.6256553614311198,4.2799193398062589E-002,21, 5,30,0.14924307924381097,21,17,45
715,0.0000000000000000,0.0000000000000000,21, 1,15,0.0000000000000000,21, 1,15
1,CHICAGO MIDWAY AP ANN CLG 1% CONDNS DB=>MWB HVAC Sizing Pass 1,  41.78, -87.75,  -6.00, 186.00
4,1, 7
48,0.0000000000000000,0.0000000000000000,21, 1,15,0.0000000000000000,21, 1,15
85,19.709474472248356,0.20530702575258691,21, 1,15,0.20530702575258691,21, 1,15
202,0.64907907587236735,6.7534413108450457E-003,21, 1,15,6.8901233730930865E-003,21,18,15
538,15.469340419577028,-0.17877134249654217,21,12,60,0.42810480317682192,21,19,45
677,8.2610210306440042,2.7965448203499426E-002,21, 5,30,0.13223314406306005,21,17,45
715,0.0000000000000000,0.0000000000000000,21, 1,15,0.0000000000000000,21, 1,15
1,CHICAGO MIDWAY AP ANN HTG 99.6% CONDNS DB,  41.78, -87.75,  -6.00, 186.00
4,1, 1
48,0.0000000000000000,0.0000000000000000,21, 1,15,0.0000000000000000,21, 1,15
85,1.2191790575342472,1.2699781849315066E-002,21, 1,15,1.2699781849315066E-002,21, 1,15
202,1.1809461693800805,1.2301522597709147E-002,21, 1,15,1.2301522597709147E-002,21, 1,15
538,66.096099643813432,0.36697169676339242,21, 1,15,0.91961646244833029,21,24,15
677,0.0000000000000000,0.0000000000000000,21, 1,15,0.0000000000000000,21, 1,15
715,61.723810915973857,0.33922039011636834,21, 1,15,0.78037863873239488,21,24,60
1,CHICAGO MIDWAY AP ANN HTG 99% CONDNS DB,  41.78, -87.75,  -6.00, 186.00
4,1, 1
48,0.0000000000000000,0.0000000000000000,21, 1,15,0.0000000000000000,21, 1,15
85,1.2191790575342472,1.2699781849315066E-002,21, 1,15,1.2699781849315066E-002,21, 1,15
202,1.1809461693800805,1.2301522597709147E-002,21, 1,15,1.2301522597709147E-002,21, 1,15
538,59.606219994311537,0.29567288721764684,21, 1,30,0.85104453300159444,21,24,15
677,0.0000000000000000,0.0000000000000000,21, 1,15,0.0000000000000000,21, 1,15
715,55.233926401644830,0.26792158057062260,21, 1,30,0.71171481271730308,21,24,60
1,CHICAGO MIDWAY AP ANN CLG .4% CONDNS DB=>MWB,  41.78, -87.75,  -6.00, 186.00
4,1, 7
48,0.0000000000000000,0.0000000000000000,21, 1,15,0.0000000000000000,21, 1,15
85,19.709474472248356,0.20530702575258691,21, 1,15,0.20530702575258691,21, 1,15
202,0.65507283268096694,6.7534413108450457E-003,21, 1,15,7.2834914738057199E-003,21,18,15
538,16.947298795723100,-0.16103618412423076,21,12,60,0.44395741129806909,21,19,45
677,9.6256553506323783,4.2799193251521560E-002,21, 5,30,0.14924307920429250,21,17,45
715,0.0000000000000000,0.0000000000000000,21, 1,15,0.0000000000000000,21, 1,15
1,CHICAGO MIDWAY AP ANN CLG 1% CONDNS DB=>MWB,  41.78, -87.75,  -6.00, 186.00
4,1, 7
48,0.0000000000000000,0.0000000000000000,21, 1,15,0.0000000000000000,21, 1,15
85,19.709474472248356,0.20530702575258691,21, 1,15,0.20530702575258691,21, 1,15
202,0.64907907587273350,6.7534413108450457E-003,21, 1,15,6.8901233731637175E-003,21,18,15
538,15.469340420121039,-0.17877134249403548,21,12,60,0.42810480317985555,21,19,45
677,8.2610210311876404,2.7965448216349352E-002,21, 5,30,0.13223314406846276,21,17,45
715,0.0000000000000000,0.0000000000000000,21, 1,15,0.0000000000000000,21, 1,15
1,ANNUAL,  41.78, -87.75,  -6.00, 186.00
4,31, 1
48,61.011097161300363,3.9361998168581129E-003, 1, 1,15,6.2979197069729806E-002, 1,21,15
85,324.04641552505967,2.6588558607866103E-002, 1, 4,15,0.24345536346713906, 1,20,15
202,33.438927939987423,5.8778496095276481E-003, 1, 1,15,1.2301522597709147E-002, 3,19,60
538,1306.5837131489529,-0.42182990546643506,18,13,30,1.0183631425571491,30, 8,30
677,0.0000000000000000,0.0000000000000000, 1, 1,15,0.0000000000000000, 1, 1,15
715,1106.7426855797335,0.0000000000000000, 1, 1,15,0.91418125857080612,30, 4,60
4,59, 2
48,55.106797436013338,3.9361998168581129E-003, 1, 1,15,6.2979197069729806E-002, 1,21,15
85,292.68708499037552,2.6588558607866103E-002, 1, 4,15,0.24345536346713906, 1,20,15
202,26.344686739767155,5.8778496095276481E-003, 8,15,60,1.2301522597709147E-002, 1, 1,15
538,938.49217523987375,-0.54256876483794891,19,13,15,1.1419046614165524, 3, 7,60
677,0.0000000000000000,0.0000000000000000, 1, 1,15,0.0000000000000000, 1, 1,15
715,797.46954453426838,0.0000000000000000, 8,15,60,1.0286484651172128, 3, 4,60
4,90, 3
48,61.011097161300363,3.9361998168581129E-003, 1, 1,15,6.2979197069729806E-002, 1,21,15
85,324.04641552505967,2.6588558607866103E-002, 1, 4,15,0.24345536346713906, 1,20,15
202,23.297637056824556,5.8778496095276481E-003, 1,17,15,1.2301522597709147E-002, 1, 1,15
538,526.77976775399043,-0.53821299799950639, 8,13,15,0.75946466274321611, 2, 7,30
677,0.0000000000000000,0.0000000000000000, 1, 1,15,0.0000000000000000, 1, 1,15
715,379.69557139673668,0.0000000000000000, 1,17,15,0.65037580432912501, 2, 4,60
4,120, 4
48,59.042997252871352,3.9361998168581129E-003, 1, 1,15,6.2979197069729806E-002, 1,21,15
85,313.59330534683158,2.6588558607866103E-002, 1, 4,15,0.24345536346713906, 1,20,15
202,17.375010948245883,5.8778496095276481E-003, 1,14,60,7.8732509603605984E-003,19, 4,60
538,156.39516023992499,-0.52782044889693924,10,13,15,0.32936478779787792,19, 6,30
677,8.0614862950350669E-002,0.0000000000000000, 1, 1,15,1.5717390094914688E-002,30,18,30
715,28.159717214562527,0.0000000000000000, 1,14,60,0.22804334830440895,19, 4,60
4,151, 5
48,61.011097161300363,3.9361998168581129E-003, 1, 1,15,6.2979197069729806E-002, 1,21,15
85,324.04641552505967,2.6588558607866103E-002, 1, 4,15,0.24345536346713906, 1,20,15
202,18.133215734224905,5.8778496095276481E-003, 1, 1,15,7.6664872046584226E-003,27,18,15
538,117.85845307729468,-0.47809306382721406, 2,13,15,0.43286665160555177,27,20,15
677,32.788274985371942,0.0000000000000000, 1, 1,15,0.13426019612717771,27,18,15
715,0.0000000000000000,0.0000000000000000, 1, 1,15,0.0000000000000000, 1, 1,15
4,181, 6
48,59.042997252871352,3.9361998168581129E-003, 1, 1,15,6.2979197069729806E-002, 1,21,15
85,313.59330534683158,2.6588558607866103E-002, 1, 4,15,0.24345536346713906, 1,20,15
202,21.802331618386177,5.8778496095276481E-003, 1, 1,15,1.2301522597709147E-002,11,17,15
538,337.13887087117109,-0.34416796860811105, 8,12,30,0.56112826311697872,14,20,30
677,242.83284138215208,0.0000000000000000, 1, 1,15,0.23601064216429368,13,15,60
715,0.0000000000000000,0.0000000000000000, 1, 1,15,0.0000000000000000, 1, 1,15
4,212, 7
48,61.011097161300363,3.9361998168581129E-003, 1, 1,15,6.2979197069729806E-002, 1,21,15
85,324.04641552505967,2.6588558607866103E-002, 1, 4,15,0.24345536346713906, 1,20,15
202,24.196768045720692,5.8778496095276481E-003, 2, 1,15,1.2301522597709147E-002, 3,18,15
538,439.04369510585991,-0.26047894424142998, 2,13,15,0.57030225035901005,24,20,15
677,363.51563042046246,0.0000000000000000, 2, 1,15,0.24435869706572780,24,18,15
715,0.0000000000000000,0.0000000000000000, 1, 1,15,0.0000000000000000, 1, 1,15
4,243, 8
48,61.011097161300363,3.9361998168581129E-003, 1, 1,15,6.2979197069729806E-002, 1,21,15
85,324.04641552505967,2.6588558607866103E-002, 1, 4,15,0.24345536346713906, 1,20,15
202,25.013551284223137,5.8778496095276481E-003, 7, 3,60,1.2301522597709147E-002, 1, 9,45
538,442.01404188990267,-0.26840774777263576, 7,12,45,0.56834433237329041, 1,20,15
677,367.08400998392051,0.0000000000000000, 7, 3,60,0.23967581491709722, 1,16,60
715,0.0000000000000000,0.0000000000000000, 1, 1,15,0.0000000000000000, 1, 1,15
4,273, 9
48,59.042997252871352,3.9361998168581129E-003, 1, 1,15,6.2979197069729806E-002, 1,21,15
85,313.59330534683158,2.6588558607866103E-002, 1, 4,15,0.24345536346713906, 1,20,15
202,22.197757871380979,5.8778496095276481E-003, 2, 3,60,1.2301522597709147E-002, 3,15,60
538,330.09878159940365,-0.36120830699296885,23,12,30,0.56155341732420094, 6,20,15
677,270.08589127875513,0.0000000000000000, 2, 3,60,0.24072040351913662, 6,15,60
715,0.0000000000000000,0.0000000000000000, 1, 1,15,0.0000000000000000, 1, 1,15
4,304,10
48,61.011097161300363,3.9361998168581129E-003, 1, 1,15,6.2979197069729806E-002, 1,21,15
85,324.04641552505967,2.6588558607866103E-002, 1, 4,15,0.24345536346713906, 1,20,15
202,19.006875372131482,5.8778496095276481E-003, 1, 1,15,1.2301522597709147E-002, 3,13,30
538,209.47016079426433,-0.48271532069968837, 9,13,15,0.53250080562631552, 4,20,15
677,76.780254609008026,0.0000000000000000, 1, 1,15,0.22564471523953511, 4,13,60
715,0.53148296549406926,0.0000000000000000, 1, 1,15,5.4581134595670447E-002,28, 5,60
4,334,11
48,59.042997252871352,3.9361998168581129E-003, 1, 1,15,6.2979197069729806E-002, 1,21,15
85,313.59330534683158,2.6588558607866103E-002, 1, 4,15,0.24345536346713906, 1,20,15
202,17.833453496828767,5.8778496095276481E-003, 1, 1,15,1.2301522597709147E-002,25, 6,30
538,137.25696802163245,-0.46891335950290502,21,12,45,0.51626283700152953,30, 8,15
677,1.4217166851336598,0.0000000000000000, 1, 1,15,5.8687931290213817E-002,10,14,30
715,47.476648101784264,0.0000000000000000, 1, 1,15,0.40208061637080328,30, 4,60
4,365,12
48,61.011097161300363,3.9361998168581129E-003, 1, 1,15,6.2979197069729806E-002, 1,21,15
85,324.04641552505967,2.6588558607866103E-002, 1, 4,15,0.24345536346713906, 1,20,15
202,28.314340621215894,5.8778496095276481E-003, 1,12,15,1.2301522597709147E-002, 1, 1,15
538,858.22245718452530,-0.50828059924919011, 1,12,30,0.88174027432252677,24, 8,15
677,0.0000000000000000,0.0000000000000000, 1, 1,15,0.0000000000000000, 1, 1,15
715,697.31198190502676,0.0000000000000000, 1,11,60,0.76178038669308468,24, 4,60
End of Data
 Number of Records Written=         120
