Program Version,EnergyPlus, Version 9.5.0-de239b2e5f, YMD=2023.05.03 08:47
1,5,Environment Title[],Latitude[deg],Longitude[deg],Time Zone[],Elevation[m]
2,8,Day of Simulation[],Month[],Day of Month[],DST Indicator[1=yes 0=no],Hour[],StartMinute[],EndMinute[],DayType
3,5,Cumulative Day of Simulation[],Month[],Day of Month[],DST Indicator[1=yes 0=no],DayType  ! When Daily Meters Requested
4,2,Cumulative Days of Simulation[],Month[]  ! When Monthly Meters Requested
5,1,Cumulative Days of Simulation[] ! When Run Period Meters Requested
6,1,Calendar Year of Simulation[] ! When Annual Meters Requested
48,9,InteriorLights:Electricity [kWh] !Monthly [Value,Min,Day,Hour,Minute,Max,Day,Hour,Minute]
85,9,InteriorEquipment:Electricity [kWh] !Monthly [Value,Min,Day,Hour,Minute,Max,Day,Hour,Minute]
202,9,Fans:Electricity [kWh] !Monthly [Value,Min,Day,Hour,Minute,Max,Day,Hour,Minute]
740,9,Heating:Electricity [kWh] !Monthly [Value,Min,Day,Hour,Minute,Max,Day,Hour,Minute]
779,9,Cooling:Electricity [kWh] !Monthly [Value,Min,Day,Hour,Minute,Max,Day,Hour,Minute]
538,9,ElectricityNet:Facility [kWh] !Monthly [Value,Min,Day,Hour,Minute,Max,Day,Hour,Minute]
691,9,NaturalGas:Facility [therm] !Monthly [Value,Min,Day,Hour,Minute,Max,Day,Hour,Minute]
End of Data Dictionary
1,CHICAGO MIDWAY AP ANN HTG 99.6% CONDNS DB HVAC Sizing Pass 1,  41.78, -87.75,  -6.00, 186.00
4,1, 1
48,0.0000000000000000,0.0000000000000000,21, 1,15,0.0000000000000000,21, 1,15
85,1.2191790575342472,1.2699781849315066E-002,21, 1,15,1.2699781849315066E-002,21, 1,15
202,8.0514241851549322,7.6631434742217730E-002,21, 1,15,8.6943780102611390E-002,21,24,60
538,9.5278854540358324,9.2081218791532818E-002,21, 1,15,0.10251549949674764,21,24,15
691,13.931587444489255,0.13151640751169397,21, 1,15,0.15382074802680687,21,24,15
740,0.0000000000000000,0.0000000000000000,21, 1,15,0.0000000000000000,21, 1,15
779,0.0000000000000000,0.0000000000000000,21, 1,15,0.0000000000000000,21, 1,15
1,CHICAGO MIDWAY AP ANN HTG 99% CONDNS DB HVAC Sizing Pass 1,  41.78, -87.75,  -6.00, 186.00
4,1, 1
48,0.0000000000000000,0.0000000000000000,21, 1,15,0.0000000000000000,21, 1,15
85,1.2191790575342472,1.2699781849315066E-002,21, 1,15,1.2699781849315066E-002,21, 1,15
202,7.1399842573561472,6.7212363084470081E-002,21, 1,15,7.7391057972541366E-002,21,24,60
538,8.6164455252633090,8.2662147133785141E-002,21, 1,15,9.2964944498702892E-002,21,24,15
691,12.295183735508976,0.11460536035132411,21, 1,15,0.13667363265751664,21,24,15
740,0.0000000000000000,0.0000000000000000,21, 1,15,0.0000000000000000,21, 1,15
779,0.0000000000000000,0.0000000000000000,21, 1,15,0.0000000000000000,21, 1,15
1,CHICAGO MIDWAY AP ANN CLG .4% CONDNS DB=>MWB HVAC Sizing Pass 1,  41.78, -87.75,  -6.00, 186.00
4,1, 7
48,0.0000000000000000,0.0000000000000000,21, 1,15,0.0000000000000000,21, 1,15
85,19.709474472248356,0.20530702575258691,21, 1,15,0.20530702575258691,21, 1,15
202,3.6484356359344732,3.3797635254783982E-003,21, 5,30,7.1932851552016425E-002,21,16,30
538,34.874955329603509,0.20394142729738399,21, 5,45,0.72816326316810165,21,18,30
691,4.6842650033224638E-002,0.0000000000000000,21, 1,15,3.9035821696462767E-003,21,10,30
740,0.0000000000000000,0.0000000000000000,21, 1,15,0.0000000000000000,21, 1,15
779,25.931855717876140,0.0000000000000000,21, 5,30,0.54119703499126326,21,16,30
1,CHICAGO MIDWAY AP ANN CLG 1% CONDNS DB=>MWB HVAC Sizing Pass 1,  41.78, -87.75,  -6.00, 186.00
4,1, 7
48,0.0000000000000000,0.0000000000000000,21, 1,15,0.0000000000000000,21, 1,15
85,19.709474472248356,0.20530702575258691,21, 1,15,0.20530702575258691,21, 1,15
202,3.1209039827597462,3.3797635254783982E-003,21, 2,60,6.5084665924819790E-002,21,16,30
538,29.815435011072026,0.13624586330296784,21,12,30,0.66341530299309548,21,18,30
691,4.6842807775549389E-002,0.0000000000000000,21, 1,15,3.9035983035874524E-003,21,21,45
740,0.0000000000000000,0.0000000000000000,21, 1,15,0.0000000000000000,21, 1,15
779,21.507199119634727,0.0000000000000000,21, 2,60,0.47883887985598106,21,16,30
1,CHICAGO MIDWAY AP ANN HTG 99.6% CONDNS DB,  41.78, -87.75,  -6.00, 186.00
4,1, 1
48,0.0000000000000000,0.0000000000000000,21, 1,15,0.0000000000000000,21, 1,15
85,1.2191790575342472,1.2699781849315066E-002,21, 1,15,1.2699781849315066E-002,21, 1,15
202,8.0532243982223157,7.6652409350612058E-002,21, 1,15,8.6961652012488344E-002,21,24,60
538,9.5296856671022745,9.2102193399927132E-002,21, 1,15,0.10253335873030879,21,24,15
691,13.934819555784230,0.13155406542582979,21, 1,15,0.15385281258000064,21,24,15
740,0.0000000000000000,0.0000000000000000,21, 1,15,0.0000000000000000,21, 1,15
779,0.0000000000000000,0.0000000000000000,21, 1,15,0.0000000000000000,21, 1,15
1,CHICAGO MIDWAY AP ANN HTG 99% CONDNS DB,  41.78, -87.75,  -6.00, 186.00
4,1, 1
48,0.0000000000000000,0.0000000000000000,21, 1,15,0.0000000000000000,21, 1,15
85,1.2191790575342472,1.2699781849315066E-002,21, 1,15,1.2699781849315066E-002,21, 1,15
202,7.1399825596592015,6.7212343290290202E-002,21, 1,15,7.7391041139609817E-002,21,24,60
538,8.6164438275663588,8.2662127339605262E-002,21, 1,15,9.2964927677192888E-002,21,24,15
691,12.295180687455620,0.11460532481275706,21, 1,15,0.13667360245609803,21,24,15
740,0.0000000000000000,0.0000000000000000,21, 1,15,0.0000000000000000,21, 1,15
779,0.0000000000000000,0.0000000000000000,21, 1,15,0.0000000000000000,21, 1,15
1,CHICAGO MIDWAY AP ANN CLG .4% CONDNS DB=>MWB,  41.78, -87.75,  -6.00, 186.00
4,1, 7
48,0.0000000000000000,0.0000000000000000,21, 1,15,0.0000000000000000,21, 1,15
85,19.709474472248356,0.20530702575258691,21, 1,15,0.20530702575258691,21, 1,15
202,3.6484356342799096,3.3797635254783982E-003,21, 5,30,7.1932851534502990E-002,21,16,30
538,34.874955315048425,0.20394142729738399,21, 5,45,0.72816326298796508,21,18,30
691,4.6842650033224638E-002,0.0000000000000000,21, 1,15,3.9035821696462767E-003,21,10,30
740,0.0000000000000000,0.0000000000000000,21, 1,15,0.0000000000000000,21, 1,15
779,25.931855704975632,0.0000000000000000,21, 5,30,0.54119703485300252,21,16,30
1,CHICAGO MIDWAY AP ANN CLG 1% CONDNS DB=>MWB,  41.78, -87.75,  -6.00, 186.00
4,1, 7
48,0.0000000000000000,0.0000000000000000,21, 1,15,0.0000000000000000,21, 1,15
85,19.709474472248356,0.20530702575258691,21, 1,15,0.20530702575258691,21, 1,15
202,3.1209039827623402,3.3797635254783982E-003,21, 2,60,6.5084665924848670E-002,21,16,30
538,29.815435011094575,0.13624586330326083,21,12,30,0.66341530299334195,21,18,30
691,4.6842807775549389E-002,0.0000000000000000,21, 1,15,3.9035983035874524E-003,21,21,45
740,0.0000000000000000,0.0000000000000000,21, 1,15,0.0000000000000000,21, 1,15
779,21.507199119654700,0.0000000000000000,21, 2,60,0.47883887985620505,21,16,30
1,ANNUAL,  41.78, -87.75,  -6.00, 186.00
4,31, 1
48,61.011097161300363,3.9361998168581129E-003, 1, 1,15,6.2979197069729806E-002, 1,21,15
85,324.04641552505967,2.6588558607866103E-002, 1, 4,15,0.24345536346713906, 1,20,15
202,143.75773431746049,3.3797635254783982E-003, 2,21,15,9.5434628323697521E-002,30, 5,60
538,298.05305142186296,-0.53887463991845075,22,13,15,0.39017591145023567,30,20,15
691,240.45827653126122,1.9510161977625298E-004, 2,21,15,0.16528567333099112,30, 5,60
740,0.0000000000000000,0.0000000000000000, 1, 1,15,0.0000000000000000, 1, 1,15
779,0.0000000000000000,0.0000000000000000, 1, 1,15,0.0000000000000000, 1, 1,15
4,59, 2
48,55.106797436013338,3.9361998168581129E-003, 1, 1,15,6.2979197069729806E-002, 1,21,15
85,292.68708499037552,2.6588558607866103E-002, 1, 4,15,0.24345536346713906, 1,20,15
202,110.40410037516551,3.3797635254783982E-003,24,13,60,0.11664526280259731, 3, 7,60
538,214.24587508062794,-0.56151371908788483,16,12,45,0.40713268830756444, 3,20,60
691,182.27914990970089,1.0912463479010757E-004,24,16,15,0.20360543996166736, 3, 7,60
740,0.0000000000000000,0.0000000000000000, 1, 1,15,0.0000000000000000, 1, 1,15
779,0.0000000000000000,0.0000000000000000, 1, 1,15,0.0000000000000000, 1, 1,15
4,90, 3
48,61.011097161300363,3.9361998168581129E-003, 1, 1,15,6.2979197069729806E-002, 1,21,15
85,324.04641552505967,2.6588558607866103E-002, 1, 4,15,0.24345536346713906, 1,20,15
202,72.330206658524006,3.3797635254783982E-003,11,12,30,6.5886575839874367E-002, 2, 4,60
538,184.11957856353629,-0.57504696126574706, 8,12,45,0.36076438505134217, 1,20,60
691,112.21314092766151,7.6056563641590125E-005,13,24,15,0.11222834227795742, 2, 4,60
740,0.0000000000000000,0.0000000000000000, 1, 1,15,0.0000000000000000, 1, 1,15
779,0.0000000000000000,0.0000000000000000, 1, 1,15,0.0000000000000000, 1, 1,15
4,120, 4
48,59.042997252871352,3.9361998168581129E-003, 1, 1,15,6.2979197069729806E-002, 1,21,15
85,313.59330534683158,2.6588558607866103E-002, 1, 4,15,0.24345536346713906, 1,20,15
202,33.550838661354753,3.3797635254783982E-003, 1,17,15,3.0426857689839097E-002,17, 4,60
538,132.72047452511791,-0.53362008262620042,10,13,15,0.33263434244675033,15,20,60
691,43.157792838936551,3.3068071148517454E-006, 3, 3,15,4.8563791490150332E-002,17, 4,60
740,0.0000000000000000,0.0000000000000000, 1, 1,15,0.0000000000000000, 1, 1,15
779,0.0000000000000000,0.0000000000000000, 1, 1,15,0.0000000000000000, 1, 1,15
4,151, 5
48,61.011097161300363,3.9361998168581129E-003, 1, 1,15,6.2979197069729806E-002, 1,21,15
85,324.04641552505967,2.6588558607866103E-002, 1, 4,15,0.24345536346713906, 1,20,15
202,19.923883869256045,3.3797635254783982E-003, 2,15,30,2.9026692169926024E-002, 3, 4,60
538,77.390304014817033,-0.48319343436447859, 2,13,15,0.39452054720970237, 9,19,15
691,17.476723027088394,3.3068071148517454E-006,10, 3,15,4.6049927491664117E-002, 3, 4,60
740,0.0000000000000000,0.0000000000000000, 1, 1,15,0.0000000000000000, 1, 1,15
779,2.5266451832807229,0.0000000000000000, 1, 1,15,0.11832990415166661, 9,18,15
4,181, 6
48,59.042997252871352,3.9361998168581129E-003, 1, 1,15,6.2979197069729806E-002, 1,21,15
85,313.59330534683158,2.6588558607866103E-002, 1, 4,15,0.24345536346713906, 1,20,15
202,52.561725331070157,3.3797635254783982E-003, 1,13,60,7.5507322909369290E-002,14,15,60
538,413.51234451920169,-0.39090946100553742,23,12,30,0.85495949958119088,13,19,15
691,5.1097520035567063,3.3068071148517454E-006, 9, 3,15,2.3224333571566454E-002, 5, 1,60
740,0.0000000000000000,0.0000000000000000, 1, 1,15,0.0000000000000000, 1, 1,15
779,300.05710266790078,0.0000000000000000, 1, 1,15,0.57413922912297988,14,15,60
4,212, 7
48,61.011097161300363,3.9361998168581129E-003, 1, 1,15,6.2979197069729806E-002, 1,21,15
85,324.04641552505967,2.6588558607866103E-002, 1, 4,15,0.24345536346713906, 1,20,15
202,79.687396964664487,3.3797635254783982E-003, 1, 2,45,0.10420297703217515,24,15,60
538,638.30402557829166,-0.28595501098109827, 2,11,15,1.1032384248339633,24,19,15
691,0.40963403815938004,3.3068071148517454E-006, 1, 3,15,2.6123776207328782E-004, 1, 8,15
740,0.0000000000000000,0.0000000000000000, 1, 1,15,0.0000000000000000, 1, 1,15
779,519.28251936936761,0.0000000000000000, 1, 2,45,0.84914941594623194,24,15,60
4,243, 8
48,61.011097161300363,3.9361998168581129E-003, 1, 1,15,6.2979197069729806E-002, 1,21,15
85,324.04641552505967,2.6588558607866103E-002, 1, 4,15,0.24345536346713906, 1,20,15
202,71.452647247683885,3.3797635254783982E-003, 2,24,15,8.3700364417196776E-002, 1,18,15
538,566.11308227765699,-0.25309746866743027, 7,12,30,0.95066859701449702, 1,19,15
691,0.40963403815938004,3.3068071148517454E-006, 1, 3,15,2.6123776207328782E-004, 1, 8,15
740,0.0000000000000000,0.0000000000000000, 1, 1,15,0.0000000000000000, 1, 1,15
779,456.74114180362955,0.0000000000000000, 2,24,15,0.64321473735205903, 1,17,15
4,273, 9
48,59.042997252871352,3.9361998168581129E-003, 1, 1,15,6.2979197069729806E-002, 1,21,15
85,313.59330534683158,2.6588558607866103E-002, 1, 4,15,0.24345536346713906, 1,20,15
202,45.480203803374359,3.3797635254783982E-003, 1, 1,15,8.7825314055112833E-002, 6,15,60
538,334.47681685159506,-0.45585361591016538,23,12,45,0.85731954722447701, 6,18,15
691,0.39642003692843192,3.3068071148517454E-006, 1, 3,15,2.6123776207328782E-004, 1, 8,15
740,0.0000000000000000,0.0000000000000000, 1, 1,15,0.0000000000000000, 1, 1,15
779,262.79166194935726,0.0000000000000000, 1, 1,15,0.67663327943139606, 6,15,60
4,304,10
48,61.011097161300363,3.9361998168581129E-003, 1, 1,15,6.2979197069729806E-002, 1,21,15
85,324.04641552505967,2.6588558607866103E-002, 1, 4,15,0.24345536346713906, 1,20,15
202,32.021001910675167,3.3797635254783982E-003, 1, 1,15,6.5811643911874079E-002, 4,17,15
538,194.16155207877574,-0.48928103788748262, 9,13,15,0.67422884281720086, 4,18,15
691,25.113849644291360,3.3068071148517454E-006, 1, 3,15,4.8411527823287670E-002,23, 4,60
740,0.0000000000000000,0.0000000000000000, 1, 1,15,0.0000000000000000, 1, 1,15
779,60.986189715888997,0.0000000000000000, 1, 1,15,0.47171639683474498, 4,17,15
4,334,11
48,59.042997252871352,3.9361998168581129E-003, 1, 1,15,6.2979197069729806E-002, 1,21,15
85,313.59330534683158,2.6588558607866103E-002, 1, 4,15,0.24345536346713906, 1,20,15
202,43.975954388200435,3.3797635254783982E-003, 1, 9,15,4.6848144989825945E-002,30, 4,60
538,102.89092277568285,-0.47368384034518096,21,12,60,0.34439703452744269,29,20,60
691,61.875096424155423,3.3068071148517454E-006,10, 3,15,7.8046650741532830E-002,30, 4,60
740,0.0000000000000000,0.0000000000000000, 1, 1,15,0.0000000000000000, 1, 1,15
779,0.0000000000000000,0.0000000000000000, 1, 1,15,0.0000000000000000, 1, 1,15
4,365,12
48,61.011097161300363,3.9361998168581129E-003, 1, 1,15,6.2979197069729806E-002, 1,21,15
85,324.04641552505967,2.6588558607866103E-002, 1, 4,15,0.24345536346713906, 1,20,15
202,108.72984279635810,3.3797635254783982E-003, 9,13,60,8.4474684936390945E-002,24, 5,60
538,229.32879005922570,-0.49272368043237147, 1,12,30,0.37580884353515331,23,20,60
691,177.56522505167163,1.0912463479010757E-004,31,16,15,0.14560813755757218,24, 5,60
740,0.0000000000000000,0.0000000000000000, 1, 1,15,0.0000000000000000, 1, 1,15
779,0.0000000000000000,0.0000000000000000, 1, 1,15,0.0000000000000000, 1, 1,15
End of Data
 Number of Records Written=         140
