Program Version,EnergyPlus, Version 9.5.0-de239b2e5f, YMD=2023.03.22 23:56
1,5,Environment Title[],Latitude[deg],Longitude[deg],Time Zone[],Elevation[m]
2,8,Day of Simulation[],Month[],Day of Month[],DST Indicator[1=yes 0=no],Hour[],StartMinute[],EndMinute[],DayType
3,5,Cumulative Day of Simulation[],Month[],Day of Month[],DST Indicator[1=yes 0=no],DayType  ! When Daily Meters Requested
4,2,Cumulative Days of Simulation[],Month[]  ! When Monthly Meters Requested
5,1,Cumulative Days of Simulation[] ! When Run Period Meters Requested
6,1,Calendar Year of Simulation[] ! When Annual Meters Requested
48,9,InteriorLights:Electricity [kWh] !Monthly [Value,Min,Day,Hour,Minute,Max,Day,Hour,Minute]
85,9,InteriorEquipment:Electricity [kWh] !Monthly [Value,Min,Day,Hour,Minute,Max,Day,Hour,Minute]
202,9,Fans:Electricity [kWh] !Monthly [Value,Min,Day,Hour,Minute,Max,Day,Hour,Minute]
715,9,Heating:Electricity [kWh] !Monthly [Value,Min,Day,Hour,Minute,Max,Day,Hour,Minute]
677,9,Cooling:Electricity [kWh] !Monthly [Value,Min,Day,Hour,Minute,Max,Day,Hour,Minute]
538,9,ElectricityNet:Facility [kWh] !Monthly [Value,Min,Day,Hour,Minute,Max,Day,Hour,Minute]
End of Data Dictionary
1,CHICAGO MIDWAY AP ANN HTG 99.6% CONDNS DB HVAC Sizing Pass 1,  41.98, -87.92,  -6.00, 201.00
4,1, 1
48,0.0000000000000000,0.0000000000000000,21, 1,15,0.0000000000000000,21, 1,15
85,1.2191790575342472,1.2699781849315066E-002,21, 1,15,1.2699781849315066E-002,21, 1,15
202,0.59140621363863621,6.1604813920691278E-003,21, 1,15,6.1604813920691278E-003,21, 1,15
538,333.76488024411879,3.1352141555671094,21, 1,15,3.7122687952209481,21,24,15
677,0.0000000000000000,0.0000000000000000,21, 1,15,0.0000000000000000,21, 1,15
715,329.98212343295506,3.1136038901257255,21, 1,15,3.5791330833304085,21,24,60
1,CHICAGO MIDWAY AP ANN HTG 99% CONDNS DB HVAC Sizing Pass 1,  41.98, -87.92,  -6.00, 201.00
4,1, 1
48,0.0000000000000000,0.0000000000000000,21, 1,15,0.0000000000000000,21, 1,15
85,1.2191790575342472,1.2699781849315066E-002,21, 1,15,1.2699781849315066E-002,21, 1,15
202,0.59140621363863621,6.1604813920691278E-003,21, 1,15,6.1604813920691278E-003,21, 1,15
538,293.51235948347193,2.7202947814427163,21, 1,15,3.2900207026648012,21,24,15
677,0.0000000000000000,0.0000000000000000,21, 1,15,0.0000000000000000,21, 1,15
715,289.72960898504414,2.6986845160013324,21, 1,15,3.1567799468824878,21,24,60
1,CHICAGO MIDWAY AP ANN CLG .4% CONDNS DB=>MWB HVAC Sizing Pass 1,  41.98, -87.92,  -6.00, 201.00
4,1, 7
48,0.0000000000000000,0.0000000000000000,21, 1,15,0.0000000000000000,21, 1,15
85,19.709474472248356,0.20530702575258691,21, 1,15,0.20530702575258691,21, 1,15
202,0.56797193324470274,5.9163743046323292E-003,21, 1,15,5.9163743046323292E-003,21, 1,15
538,26.297431280549898,2.3349031896800314E-002,21,12,30,0.62599063062860472,21,19,45
677,19.099146374991840,9.6658489382238767E-004,21, 5,30,0.39242216817058123,21,17,45
715,0.0000000000000000,0.0000000000000000,21, 1,15,0.0000000000000000,21, 1,15
1,CHICAGO MIDWAY AP ANN CLG 1% CONDNS DB=>MWB HVAC Sizing Pass 1,  41.98, -87.92,  -6.00, 201.00
4,1, 7
48,0.0000000000000000,0.0000000000000000,21, 1,15,0.0000000000000000,21, 1,15
85,19.709474472248356,0.20530702575258691,21, 1,15,0.20530702575258691,21, 1,15
202,0.56731701342792329,5.8778496095276481E-003,21, 2,60,5.9163743046323292E-003,21, 1,15
538,22.218240943896184,-3.1373528655346782E-002,21,12,30,0.57879698890237796,21,19,45
677,15.128218148684917,0.0000000000000000,21, 2,60,0.33833666877484347,21,17,45
715,0.0000000000000000,0.0000000000000000,21, 1,15,0.0000000000000000,21, 1,15
1,CHICAGO MIDWAY AP ANN HTG 99.6% CONDNS DB,  41.98, -87.92,  -6.00, 201.00
4,1, 1
48,0.0000000000000000,0.0000000000000000,21, 1,15,0.0000000000000000,21, 1,15
85,1.2191790575342472,1.2699781849315066E-002,21, 1,15,1.2699781849315066E-002,21, 1,15
202,0.59140621363863621,6.1604813920691278E-003,21, 1,15,6.1604813920691278E-003,21, 1,15
538,333.81913583688248,3.1358472414401426,21, 1,15,3.7128123264884265,21,24,15
677,0.0000000000000000,0.0000000000000000,21, 1,15,0.0000000000000000,21, 1,15
715,330.03637902621210,3.1142369759987591,21, 1,15,3.5796743785717577,21,24,60
1,CHICAGO MIDWAY AP ANN HTG 99% CONDNS DB,  41.98, -87.92,  -6.00, 201.00
4,1, 1
48,0.0000000000000000,0.0000000000000000,21, 1,15,0.0000000000000000,21, 1,15
85,1.2191790575342472,1.2699781849315066E-002,21, 1,15,1.2699781849315066E-002,21, 1,15
202,0.59140621363863621,6.1604813920691278E-003,21, 1,15,6.1604813920691278E-003,21, 1,15
538,293.51232682532458,2.7202944006905079,21, 1,15,3.2900203787134337,21,24,15
677,0.0000000000000000,0.0000000000000000,21, 1,15,0.0000000000000000,21, 1,15
715,289.72957632689696,2.6986841352491244,21, 1,15,3.1567796235258707,21,24,60
1,CHICAGO MIDWAY AP ANN CLG .4% CONDNS DB=>MWB,  41.98, -87.92,  -6.00, 201.00
4,1, 7
48,0.0000000000000000,0.0000000000000000,21, 1,15,0.0000000000000000,21, 1,15
85,19.709474472248356,0.20530702575258691,21, 1,15,0.20530702575258691,21, 1,15
202,0.56797193324470274,5.9163743046323292E-003,21, 1,15,5.9163743046323292E-003,21, 1,15
538,26.297431274312164,2.3349031826292024E-002,21,12,30,0.62599063056563931,21,19,45
677,19.099146368754102,9.6658480899565772E-004,21, 5,30,0.39242216810284358,21,17,45
715,0.0000000000000000,0.0000000000000000,21, 1,15,0.0000000000000000,21, 1,15
1,CHICAGO MIDWAY AP ANN CLG 1% CONDNS DB=>MWB,  41.98, -87.92,  -6.00, 201.00
4,1, 7
48,0.0000000000000000,0.0000000000000000,21, 1,15,0.0000000000000000,21, 1,15
85,19.709474472248356,0.20530702575258691,21, 1,15,0.20530702575258691,21, 1,15
202,0.56731701342792329,5.8778496095276481E-003,21, 2,60,5.9163743046323292E-003,21, 1,15
538,22.218240943893750,-3.1373528655383502E-002,21,12,30,0.57879698890237363,21,19,45
677,15.128218148682480,0.0000000000000000,21, 2,60,0.33833666877483143,21,17,45
715,0.0000000000000000,0.0000000000000000,21, 1,15,0.0000000000000000,21, 1,15
1,ANNUAL,  41.98, -87.92,  -6.00, 201.00
4,31, 1
48,61.011097161300363,3.9361998168581129E-003, 1, 1,15,6.2979197069729806E-002, 1,21,15
85,324.04641552505967,2.6588558607866103E-002, 1, 4,15,0.24345536346713906, 1,20,15
202,18.141996054570793,5.8778496095276481E-003,17,12,30,6.1604813920691278E-003, 1, 1,15
538,5118.6010547961823,-0.47962158339974548,17,12,30,4.3357933147637837,27, 8,15
677,0.0000000000000000,0.0000000000000000, 1, 1,15,0.0000000000000000, 1, 1,15
715,4951.3964579656467,0.0000000000000000,17,12,30,4.1734842848277314,27, 8,15
4,59, 2
48,55.106797436013338,3.9361998168581129E-003, 1, 1,15,6.2979197069729806E-002, 1,21,15
85,292.68708499037552,2.6588558607866103E-002, 1, 4,15,0.24345536346713906, 1,20,15
202,16.314909418179056,5.8778496095276481E-003, 9,15,45,6.1604813920691278E-003, 1, 1,15
538,3874.2764880972200,-0.48298008186906682,11,13,30,4.1049838107217811, 6, 6,15
677,0.0000000000000000,0.0000000000000000, 1, 1,15,0.0000000000000000, 1, 1,15
715,3766.3590983716281,0.0000000000000000, 9,15,45,4.0239063074090398, 6, 5,60
4,90, 3
48,61.011097161300363,3.9361998168581129E-003, 1, 1,15,6.2979197069729806E-002, 1,21,15
85,324.04641552505967,2.6588558607866103E-002, 1, 4,15,0.24345536346713906, 1,20,15
202,17.747865868004506,5.8778496095276481E-003, 8,12,15,6.1604813920691278E-003, 2, 2,60
538,2171.1242384229240,-0.56634154406460813,20,13,15,2.4574741224034922, 5, 5,60
677,0.0000000000000000,0.0000000000000000, 1, 1,15,0.0000000000000000, 1, 1,15
715,2071.7169258453000,0.0000000000000000, 8,12,15,2.3804391749811988, 5, 5,60
4,120, 4
48,59.042997252871352,3.9361998168581129E-003, 1, 1,15,6.2979197069729806E-002, 1,21,15
85,313.59330534683158,2.6588558607866103E-002, 1, 4,15,0.24345536346713906, 1,20,15
202,17.052249885208344,5.8778496095276481E-003, 6,11,60,6.1604813920691278E-003, 1, 1,15
538,1095.7071240071018,-0.51698121908352102,25,12,30,1.9500601074485118, 5, 6,15
677,73.674050666650274,0.0000000000000000, 1, 1,15,0.56235113468130626,18,15,30
715,924.18767439415444,0.0000000000000000, 6,11,60,1.8610392144448433, 5, 5,60
4,151, 5
48,61.011097161300363,3.9361998168581129E-003, 1, 1,15,6.2979197069729806E-002, 1,21,15
85,324.04641552505967,2.6588558607866103E-002, 1, 4,15,0.24345536346713906, 1,20,15
202,17.542909263846681,5.8778496095276481E-003, 1, 8,60,5.9163743046323292E-003, 1, 1,15
538,272.94560625383809,-0.44831838287296771, 6,12,30,0.90556495239959789, 9, 5,30
677,122.36213890789618,0.0000000000000000, 1, 1,15,0.43849892837062215,30,18,15
715,93.595004715517177,0.0000000000000000, 1, 8,60,0.82877411206474005, 9, 5,30
4,181, 6
48,59.042997252871352,3.9361998168581129E-003, 1, 1,15,6.2979197069729806E-002, 1,21,15
85,313.59330534683158,2.6588558607866103E-002, 1, 4,15,0.24345536346713906, 1,20,15
202,16.991811147057859,5.8778496095276481E-003, 1, 1,15,5.9163743046323292E-003, 1,10,30
538,473.01430741033226,-0.39901503619441792,23,13,15,0.78744613655504292,15,18,15
677,403.05050188034824,0.0000000000000000, 1, 1,15,0.68719360006961128,20,15,30
715,0.26463637402880041,0.0000000000000000, 1, 1,15,5.5008180740365724E-002,25, 5,15
4,212, 7
48,61.011097161300363,3.9361998168581129E-003, 1, 1,15,6.2979197069729806E-002, 1,21,15
85,324.04641552505967,2.6588558607866103E-002, 1, 4,15,0.24345536346713906, 1,20,15
202,17.576397766295869,5.8778496095276481E-003, 1, 1,15,5.9457308585597881E-003,19,15,60
538,677.61995873455032,-0.24643113085897816, 3,10,15,0.95279459560339563,18,18,30
677,610.77574451472276,0.0000000000000000, 1, 1,15,0.84559890136021310,19,15,60
715,0.0000000000000000,0.0000000000000000, 1, 1,15,0.0000000000000000, 1, 1,15
4,243, 8
48,61.011097161300363,3.9361998168581129E-003, 1, 1,15,6.2979197069729806E-002, 1,21,15
85,324.04641552505967,2.6588558607866103E-002, 1, 4,15,0.24345536346713906, 1,20,15
202,17.564318220557553,5.8778496095276481E-003, 1, 1,15,5.9238051367058141E-003, 3,15,60
538,554.40202555870133,-0.26022404474941424,17,10,30,0.87021869249105976, 3,19,15
677,468.32219481584275,0.0000000000000000, 1, 1,15,0.72370350018702412, 3,15,60
715,0.0000000000000000,0.0000000000000000, 1, 1,15,0.0000000000000000, 1, 1,15
4,273, 9
48,59.042997252871352,3.9361998168581129E-003, 1, 1,15,6.2979197069729806E-002, 1,21,15
85,313.59330534683158,2.6588558607866103E-002, 1, 4,15,0.24345536346713906, 1,20,15
202,16.976844303009752,5.8778496095276481E-003, 1, 1,15,5.9163743046323292E-003, 1,10,15
538,313.39814088998639,-0.46074276015947530,24,12,45,0.65369030810436557, 5,18,15
677,226.04215073827297,0.0000000000000000, 1, 1,15,0.56044118134052578, 5,15,60
715,6.6273340842316344,0.0000000000000000, 1, 1,15,0.14320903300741794,25, 6,45
4,304,10
48,61.011097161300363,3.9361998168581129E-003, 1, 1,15,6.2979197069729806E-002, 1,21,15
85,324.04641552505967,2.6588558607866103E-002, 1, 4,15,0.24345536346713906, 1,20,15
202,17.546208523978198,5.8778496095276481E-003, 1, 1,15,6.1604813920691278E-003, 8, 6,60
538,515.89352054482868,-0.51508950620364735,24,13,30,1.3742785050964901, 8, 6,60
677,10.771411068755302,0.0000000000000000, 1, 1,15,0.18103225268827300, 1,15,45
715,397.72138495861850,0.0000000000000000, 1, 1,15,1.3060574320522942,24, 3,60
4,334,11
48,59.042997252871352,3.9361998168581129E-003, 1, 1,15,6.2979197069729806E-002, 1,21,15
85,313.59330534683158,2.6588558607866103E-002, 1, 4,15,0.24345536346713906, 1,20,15
202,17.209809899791694,5.8778496095276481E-003, 1,11,30,6.1604813920691278E-003,11, 7,30
538,2289.8360951937589,-0.49264624873854640,14,12,30,3.3421138206785881,26, 7,45
677,0.0000000000000000,0.0000000000000000, 1, 1,15,0.0000000000000000, 1, 1,15
715,2097.2542835257318,0.0000000000000000, 1,11,30,3.1890491198659339,26, 4,60
4,365,12
48,61.011097161300363,3.9361998168581129E-003, 1, 1,15,6.2979197069729806E-002, 1,21,15
85,324.04641552505967,2.6588558607866103E-002, 1, 4,15,0.24345536346713906, 1,20,15
202,18.151155208556236,5.8778496095276481E-003, 5,14,60,6.1604813920691278E-003, 2, 7,60
538,4823.5219961787707,-0.37706891735351783, 5,14,60,3.6365524817720627,20, 7,60
677,0.0000000000000000,0.0000000000000000, 1, 1,15,0.0000000000000000, 1, 1,15
715,4630.1505140306563,0.0000000000000000, 5,14,60,3.4990608417013274,30, 2,60
End of Data
 Number of Records Written=         120
