Program Version,EnergyPlus, Version 9.5.0-de239b2e5f, YMD=2023.03.21 23:39
1,5,Environment Title[],Latitude[deg],Longitude[deg],Time Zone[],Elevation[m]
2,8,Day of Simulation[],Month[],Day of Month[],DST Indicator[1=yes 0=no],Hour[],StartMinute[],EndMinute[],DayType
3,5,Cumulative Day of Simulation[],Month[],Day of Month[],DST Indicator[1=yes 0=no],DayType  ! When Daily Meters Requested
4,2,Cumulative Days of Simulation[],Month[]  ! When Monthly Meters Requested
5,1,Cumulative Days of Simulation[] ! When Run Period Meters Requested
6,1,Calendar Year of Simulation[] ! When Annual Meters Requested
48,9,InteriorLights:Electricity [J] !Monthly [Value,Min,Day,Hour,Minute,Max,Day,Hour,Minute]
85,9,InteriorEquipment:Electricity [J] !Monthly [Value,Min,Day,Hour,Minute,Max,Day,Hour,Minute]
202,9,Fans:Electricity [J] !Monthly [Value,Min,Day,Hour,Minute,Max,Day,Hour,Minute]
715,9,Heating:Electricity [J] !Monthly [Value,Min,Day,Hour,Minute,Max,Day,Hour,Minute]
677,9,Cooling:Electricity [J] !Monthly [Value,Min,Day,Hour,Minute,Max,Day,Hour,Minute]
538,9,ElectricityNet:Facility [J] !Monthly [Value,Min,Day,Hour,Minute,Max,Day,Hour,Minute]
End of Data Dictionary
1,CHICAGO MIDWAY AP ANN HTG 99.6% CONDNS DB HVAC Sizing Pass 1,  41.78, -87.75,  -6.00, 186.00
4,1, 1
48,0.0,0.0,21, 1,15,0.0,21, 1,15
85,4389041.095890413,45719.17808219178,21, 1,15,45719.17808219178,21, 1,15
202,2043624.4549133543,21287.75473868075,21, 1,15,21287.75473868075,21, 1,15
538,178320698.30752779,831296.7265440615,21, 1,30,2621252.5693816367,21,23,60
677,0.0,0.0,21, 1,15,0.0,21, 1,15
715,164788215.87523423,754389.7937231889,21, 1,30,2152307.134846783,21,24,60
1,CHICAGO MIDWAY AP ANN HTG 99% CONDNS DB HVAC Sizing Pass 1,  41.78, -87.75,  -6.00, 186.00
4,1, 1
48,0.0,0.0,21, 1,15,0.0,21, 1,15
85,4389041.095890413,45719.17808219178,21, 1,15,45719.17808219178,21, 1,15
202,2043624.4549133543,21287.75473868075,21, 1,15,21287.75473868075,21, 1,15
538,157966502.02362076,661675.6776114422,21, 1,30,2397627.9497305045,21,23,60
677,0.0,0.0,21, 1,15,0.0,21, 1,15
715,144434047.54840286,584768.7447905697,21, 1,30,1927887.1194408632,21,24,60
1,CHICAGO MIDWAY AP ANN CLG .4% CONDNS DB=>MWB HVAC Sizing Pass 1,  41.78, -87.75,  -6.00, 186.00
4,1, 7
48,0.0,0.0,21, 1,15,0.0,21, 1,15
85,70954051.33685301,739104.7014255518,21, 1,15,739104.7014255518,21, 1,15
202,2033710.65519383,21177.622592619922,21, 1,15,21205.966842617494,21,18,15
538,58181069.14590288,-624832.3346778473,21,12,60,1537339.9453173187,21,19,45
677,32147725.434784175,176301.5528428584,21, 5,30,470374.0915381649,21,18,15
715,0.0,0.0,21, 1,15,0.0,21, 1,15
1,CHICAGO MIDWAY AP ANN CLG 1% CONDNS DB=>MWB HVAC Sizing Pass 1,  41.78, -87.75,  -6.00, 186.00
4,1, 7
48,0.0,0.0,21, 1,15,0.0,21, 1,15
85,70954051.33685301,739104.7014255518,21, 1,15,739104.7014255518,21, 1,15
202,2033371.8223633415,21177.622592619922,21, 1,15,21195.328353768025,21,18,15
538,54235674.38446356,-676560.9478733497,21,12,60,1496334.7940479529,21,19,45
677,28589058.067352989,140519.6339910851,21, 5,30,427210.98764696376,21,17,45
715,0.0,0.0,21, 1,15,0.0,21, 1,15
1,CHICAGO MIDWAY AP ANN HTG 99.6% CONDNS DB,  41.78, -87.75,  -6.00, 186.00
4,1, 1
48,0.0,0.0,21, 1,15,0.0,21, 1,15
85,4389041.095890413,45719.17808219178,21, 1,15,45719.17808219178,21, 1,15
202,2043624.4549133543,21287.75473868075,21, 1,15,21287.75473868075,21, 1,15
538,178562103.29938168,836382.5651503055,21, 1,30,2623647.4242965646,21,23,60
677,0.0,0.0,21, 1,15,0.0,21, 1,15
715,165029620.90807415,759475.6323294329,21, 1,30,2154697.1353093965,21,24,60
1,CHICAGO MIDWAY AP ANN HTG 99% CONDNS DB,  41.78, -87.75,  -6.00, 186.00
4,1, 1
48,0.0,0.0,21, 1,15,0.0,21, 1,15
85,4389041.095890413,45719.17808219178,21, 1,15,45719.17808219178,21, 1,15
202,2043624.4549133543,21287.75473868075,21, 1,15,21287.75473868075,21, 1,15
538,157966275.18823479,661672.2864570232,21, 1,30,2397625.711587777,21,23,60
677,0.0,0.0,21, 1,15,0.0,21, 1,15
715,144433820.7130286,584765.3536361507,21, 1,30,1927884.8862593324,21,24,60
1,CHICAGO MIDWAY AP ANN CLG .4% CONDNS DB=>MWB,  41.78, -87.75,  -6.00, 186.00
4,1, 7
48,0.0,0.0,21, 1,15,0.0,21, 1,15
85,70954051.33685301,739104.7014255518,21, 1,15,739104.7014255518,21, 1,15
202,2033710.6551909452,21177.622592619922,21, 1,15,21205.966842404203,21,18,15
538,58181069.11584536,-624832.3341561779,21,12,60,1537339.9452256475,21,19,45
677,32147725.40472947,176301.55242000515,21, 5,30,470374.09086068187,21,18,15
715,0.0,0.0,21, 1,15,0.0,21, 1,15
1,CHICAGO MIDWAY AP ANN CLG 1% CONDNS DB=>MWB,  41.78, -87.75,  -6.00, 186.00
4,1, 7
48,0.0,0.0,21, 1,15,0.0,21, 1,15
85,70954051.33685301,739104.7014255518,21, 1,15,739104.7014255518,21, 1,15
202,2033371.8223634538,21177.622592619922,21, 1,15,21195.328353776233,21,18,15
538,54235674.38581376,-676560.9478685018,21,12,60,1496334.7940621935,21,19,45
677,28589058.068703079,140519.63400531186,21, 5,30,427210.9876598792,21,17,45
715,0.0,0.0,21, 1,15,0.0,21, 1,15
1,ANNUAL,  41.78, -87.75,  -6.00, 186.00
4,31, 1
48,219639774.06886206,14170.308004442802, 1, 1,15,226724.92807108485, 1,21,15
85,1166566162.6372848,95718.73441333045, 1, 4,15,876438.6073308148, 1,20,15
202,63264687.61499685,21160.2416661062, 1, 1,15,21287.75473868075, 3,23,60
538,3165326583.915037,-2032658.4306860183,18,13,15,2926771.4567823645,30, 8,30
677,0.0,0.0, 1, 1,15,0.0, 1, 1,15
715,2503016272.3149068,0.0, 1, 1,15,2576111.7476454779,30, 4,60
4,59, 2
48,198384312.06219838,14170.308004442802, 1, 1,15,226724.92807108485, 1,21,15
85,1053672663.0272216,95718.73441333045, 1, 4,15,876438.6073308148, 1,20,15
202,57061810.46076712,21160.2416661062, 5,14,45,21287.75473868075, 1, 1,15
538,2253720972.0637638,-2099043.320466236,16,12,45,3342090.0829471277, 3, 7,60
677,0.0,0.0, 1, 1,15,0.0, 1, 1,15
715,1783818893.598192,0.0, 5,14,45,2959275.3433941549, 3, 4,60
4,90, 3
48,219639774.06886206,14170.308004442802, 1, 1,15,226724.92807108485, 1,21,15
85,1166566162.6372848,95718.73441333045, 1, 4,15,876438.6073308148, 1,20,15
202,63045709.552689339,21160.2416661062, 1,10,15,21287.75473868075, 1, 1,15
538,1147362343.9940196,-2136250.763145948, 8,12,45,2019228.4844171156, 1, 7,30
677,1217527.570186395,0.0, 1, 1,15,117538.31631644708,15,17,30
715,637467849.8945975,0.0, 1,10,15,1658417.0473617987, 1, 4,60
4,120, 4
48,212554620.06664083,14170.308004442802, 1, 1,15,226724.92807108485, 1,21,15
85,1128934996.100597,95718.73441333045, 1, 4,15,876438.6073308148, 1,20,15
202,60951188.52471732,21160.2416661062, 1,11,15,21205.66473534711,30,18,15
538,535617676.899758,-1900152.0959073047,10,13,15,1397609.036556453, 7,20,15
677,64115511.90523928,0.0, 1, 1,15,397453.3671921045, 7,17,15
715,11743953.54442343,0.0, 1,11,15,291024.9072055928,19, 4,60
4,151, 5
48,219639774.06886206,14170.308004442802, 1, 1,15,226724.92807108485, 1,21,15
85,1166566162.6372848,95718.73441333045, 1, 4,15,876438.6073308148, 1,20,15
202,63007327.72692384,21160.2416661062, 1, 1,15,21287.625183881923,27,18,15
538,614948980.0728983,-1721133.6528710484, 2,13,15,1587145.6019985248,27,20,15
677,310968780.6365582,0.0, 1, 1,15,565896.3598351658, 9,17,15
715,0.0,0.0, 1, 1,15,0.0, 1, 1,15
4,181, 6
48,212554620.06664083,14170.308004442802, 1, 1,15,226724.92807108485, 1,21,15
85,1128934996.100597,95718.73441333045, 1, 4,15,876438.6073308148, 1,20,15
202,61099600.212685879,21160.2416661062, 1, 1,15,21287.75473868075, 9,17,15
538,1211704667.8177844,-1043174.8394274677, 8,12,60,1803523.443851675,14,20,30
677,889591964.0813017,0.0, 1, 1,15,647317.788715893,14,15,60
715,0.0,0.0, 1, 1,15,0.0, 1, 1,15
4,212, 7
48,219639774.06886206,14170.308004442802, 1, 1,15,226724.92807108485, 1,21,15
85,1166566162.6372848,95718.73441333045, 1, 4,15,876438.6073308148, 1,20,15
202,63183457.03400536,21160.2416661062, 2, 4,15,21287.75473868075, 1, 8,30
538,1483188098.2375837,-926359.0302838483,22,13,15,1820569.0931796074,24,20,15
677,1235212121.1347552,0.0, 2, 4,15,672315.100313159,24,17,15
715,0.0,0.0, 1, 1,15,0.0, 1, 1,15
4,243, 8
48,219639774.06886206,14170.308004442802, 1, 1,15,226724.92807108485, 1,21,15
85,1166566162.6372848,95718.73441333045, 1, 4,15,876438.6073308148, 1,20,15
202,63196971.53988437,21160.2416661062,20, 2,60,21287.75473868075, 1, 7,45
538,1496127557.7904089,-957588.7860207972, 6,13,15,1821679.235242027, 1,20,15
677,1253231399.7715455,0.0,20, 2,60,657431.4646974558, 1,16,60
715,0.0,0.0, 1, 1,15,0.0, 1, 1,15
4,273, 9
48,212554620.06664083,14170.308004442802, 1, 1,15,226724.92807108485, 1,21,15
85,1128934996.100597,95718.73441333045, 1, 4,15,876438.6073308148, 1,20,15
202,61117153.01467104,21160.2416661062, 9, 2,45,21287.75473868075, 1,14,30
538,1192177079.7498992,-1193275.9495384405,23,12,45,1803410.2041482179, 6,20,15
677,994925558.8253639,0.0, 9, 2,45,660251.9392087081, 6,15,60
715,0.0,0.0, 1, 1,15,0.0, 1, 1,15
4,304,10
48,219639774.06886206,14170.308004442802, 1, 1,15,226724.92807108485, 1,21,15
85,1166566162.6372848,95718.73441333045, 1, 4,15,876438.6073308148, 1,20,15
202,63030428.95004881,21160.2416661062, 1, 1,15,21287.75473868075, 1,13,60
538,836464427.3936572,-1627247.1397174607,29,12,30,1769640.4944689156, 4,20,15
677,366088752.0683347,0.0, 1, 1,15,619017.9604095031, 4,16,60
715,0.0,0.0, 1, 1,15,0.0, 1, 1,15
4,334,11
48,212554620.06664083,14170.308004442802, 1, 1,15,226724.92807108485, 1,21,15
85,1128934996.100597,95718.73441333045, 1, 4,15,876438.6073308148, 1,20,15
202,60959688.64465733,21160.2416661062, 1, 1,15,21287.75473868075,29, 4,30
538,411527870.27106079,-1688086.7437410632,21,12,45,1400618.7853200059, 9,20,15
677,86509181.64225516,0.0, 1, 1,15,425008.39919610987, 9,15,15
715,10168664.040031564,0.0, 1, 1,15,454352.088008045,30, 4,60
4,365,12
48,219639774.06886206,14170.308004442802, 1, 1,15,226724.92807108485, 1,21,15
85,1166566162.6372848,95718.73441333045, 1, 4,15,876438.6073308148, 1,20,15
202,63146548.32782369,21160.2416661062, 1, 1,15,21287.75473868075, 1, 2,15
538,1836586618.0059553,-1829808.6934501297, 1,12,30,2427751.015335911,24, 8,15
677,0.0,0.0, 1, 1,15,0.0, 1, 1,15
715,1296094366.7848733,0.0, 1, 1,15,2026336.5998532484,24, 4,60
End of Data
 Number of Records Written=         120
