Program Version,EnergyPlus, Version 9.5.0-de239b2e5f, YMD=2023.03.23 14:22
1,5,Environment Title[],Latitude[deg],Longitude[deg],Time Zone[],Elevation[m]
2,8,Day of Simulation[],Month[],Day of Month[],DST Indicator[1=yes 0=no],Hour[],StartMinute[],EndMinute[],DayType
3,5,Cumulative Day of Simulation[],Month[],Day of Month[],DST Indicator[1=yes 0=no],DayType  ! When Daily Meters Requested
4,2,Cumulative Days of Simulation[],Month[]  ! When Monthly Meters Requested
5,1,Cumulative Days of Simulation[] ! When Run Period Meters Requested
6,1,Calendar Year of Simulation[] ! When Annual Meters Requested
48,9,InteriorLights:Electricity [J] !Monthly [Value,Min,Day,Hour,Minute,Max,Day,Hour,Minute]
85,9,InteriorEquipment:Electricity [J] !Monthly [Value,Min,Day,Hour,Minute,Max,Day,Hour,Minute]
202,9,Fans:Electricity [J] !Monthly [Value,Min,Day,Hour,Minute,Max,Day,Hour,Minute]
715,9,Heating:Electricity [J] !Monthly [Value,Min,Day,Hour,Minute,Max,Day,Hour,Minute]
677,9,Cooling:Electricity [J] !Monthly [Value,Min,Day,Hour,Minute,Max,Day,Hour,Minute]
538,9,ElectricityNet:Facility [J] !Monthly [Value,Min,Day,Hour,Minute,Max,Day,Hour,Minute]
End of Data Dictionary
1,NASHVILLE INTERNATIONAL AP ANN HTG 99.6% CONDNS DB HVAC Sizing Pass 1,  36.12, -86.68,  -6.00, 177.00
4,1, 1
48,0.0,0.0,21, 1,15,0.0,21, 1,15
85,4389041.095890413,45719.17808219178,21, 1,15,45719.17808219178,21, 1,15
202,2051505.6776550965,21369.85080890723,21, 1,15,21369.85080890723,21, 1,15
538,209883269.7630604,951368.2700240688,21, 1,30,3053344.425102975,21,24,15
677,0.0,0.0,21, 1,15,0.0,21, 1,15
715,196344719.21690656,874379.2411329696,21, 1,30,2575568.1473665374,21,24,60
1,NASHVILLE INTERNATIONAL AP ANN HTG 99% CONDNS DB HVAC Sizing Pass 1,  36.12, -86.68,  -6.00, 177.00
4,1, 1
48,0.0,0.0,21, 1,15,0.0,21, 1,15
85,4389041.095890413,45719.17808219178,21, 1,15,45719.17808219178,21, 1,15
202,2051505.6776550965,21369.85080890723,21, 1,15,21369.85080890723,21, 1,15
538,179864531.83625476,718295.5658574276,21, 1,30,2730730.779414533,21,24,15
677,0.0,0.0,21, 1,15,0.0,21, 1,15
715,166325988.40431194,641306.5369663285,21, 1,30,2252573.8756863258,21,24,60
1,NASHVILLE INTERNATIONAL AP ANN CLG .4% CONDNS DB=>MWB HVAC Sizing Pass 1,  36.12, -86.68,  -6.00, 177.00
4,1, 7
48,0.0,0.0,21, 1,15,0.0,21, 1,15
85,70954051.33685301,739104.7014255518,21, 1,15,739104.7014255518,21, 1,15
202,2034981.154655961,21188.812863035826,21, 1,15,21233.834461668765,21,17,60
538,72800476.36042319,-329720.75786313237,21,12,30,1752299.643865906,21,19,45
677,41208021.84364664,179497.78668319473,21, 5,45,685539.4902324027,21,17,45
715,0.0,0.0,21, 1,15,0.0,21, 1,15
1,NASHVILLE INTERNATIONAL AP ANN CLG 1% CONDNS DB=>MWB HVAC Sizing Pass 1,  36.12, -86.68,  -6.00, 177.00
4,1, 7
48,0.0,0.0,21, 1,15,0.0,21, 1,15
85,70954051.33685301,739104.7014255518,21, 1,15,739104.7014255518,21, 1,15
202,2034625.6651250637,21188.812863035826,21, 1,15,21219.88299147943,21,17,60
538,68518868.24922611,-384144.9888044321,21,12,45,1705887.2393338953,21,19,45
677,37245760.261018928,132998.14229891377,21, 5,45,636171.5183050527,21,17,45
715,0.0,0.0,21, 1,15,0.0,21, 1,15
1,NASHVILLE INTERNATIONAL AP ANN HTG 99.6% CONDNS DB,  36.12, -86.68,  -6.00, 177.00
4,1, 1
48,0.0,0.0,21, 1,15,0.0,21, 1,15
85,4389041.095890413,45719.17808219178,21, 1,15,45719.17808219178,21, 1,15
202,2051505.6776550965,21369.85080890723,21, 1,15,21369.85080890723,21, 1,15
538,210155622.03435696,954328.217367646,21, 1,30,3055980.8072026998,21,24,15
677,0.0,0.0,21, 1,15,0.0,21, 1,15
715,196617071.34354929,877339.188476547,21, 1,30,2578202.3233952198,21,24,60
1,NASHVILLE INTERNATIONAL AP ANN HTG 99% CONDNS DB,  36.12, -86.68,  -6.00, 177.00
4,1, 1
48,0.0,0.0,21, 1,15,0.0,21, 1,15
85,4389041.095890413,45719.17808219178,21, 1,15,45719.17808219178,21, 1,15
202,2051505.6776550965,21369.85080890723,21, 1,15,21369.85080890723,21, 1,15
538,179864454.64278887,718294.7739365583,21, 1,30,2730730.027726559,21,24,15
677,0.0,0.0,21, 1,15,0.0,21, 1,15
715,166325911.21090848,641305.7450454593,21, 1,30,2252573.1230549018,21,24,60
1,NASHVILLE INTERNATIONAL AP ANN CLG .4% CONDNS DB=>MWB,  36.12, -86.68,  -6.00, 177.00
4,1, 7
48,0.0,0.0,21, 1,15,0.0,21, 1,15
85,70954051.33685301,739104.7014255518,21, 1,15,739104.7014255518,21, 1,15
202,2034981.1546548843,21188.812863035826,21, 1,15,21233.83446163148,21,17,60
538,72800476.34954834,-329720.75791270835,21,12,30,1752299.6437952256,21,19,45
677,41208021.83277287,179497.78653570557,21, 5,45,685539.4901245248,21,17,45
715,0.0,0.0,21, 1,15,0.0,21, 1,15
1,NASHVILLE INTERNATIONAL AP ANN CLG 1% CONDNS DB=>MWB,  36.12, -86.68,  -6.00, 177.00
4,1, 7
48,0.0,0.0,21, 1,15,0.0,21, 1,15
85,70954051.33685301,739104.7014255518,21, 1,15,739104.7014255518,21, 1,15
202,2034625.66512467,21188.812863035826,21, 1,15,21219.88299146278,21,17,60
538,68518868.24281718,-384144.98878133666,21,12,45,1705887.239284859,21,19,45
677,37245760.25461039,132998.14219148516,21, 5,45,636171.5182486018,21,17,45
715,0.0,0.0,21, 1,15,0.0,21, 1,15
1,ANNUAL,  36.12, -86.68,  -6.00, 177.00
4,31, 1
48,219639774.06886206,14170.308004442802, 1, 1,15,226724.92807108485, 1,21,15
85,1166566162.6372848,95718.73441333045, 1, 4,15,876438.6073308148, 1,20,15
202,63258875.8837994,21160.2416661062, 1, 1,15,21369.85080890723, 1, 4,45
538,3344961882.7544076,-1942363.237385668,30,13,15,3850371.5262939955,27, 7,45
677,0.0,0.0, 1, 1,15,0.0, 1, 1,15
715,2727428140.0818,0.0, 1, 1,15,3420956.5071121507,27, 4,60
4,59, 2
48,198384312.06219838,14170.308004442802, 1, 1,15,226724.92807108485, 1,21,15
85,1053672663.0272216,95718.73441333045, 1, 4,15,876438.6073308148, 1,20,15
202,57173458.94715524,21160.2416661062,10,18,15,21369.85080890723, 1, 1,15
538,2922722313.1728675,-1915914.79262163,28,13,30,3714130.117277067, 3, 7,45
677,0.0,0.0, 1, 1,15,0.0, 1, 1,15
715,2644813702.1964595,0.0,10,18,15,3265977.5097777077, 3, 5,60
4,90, 3
48,219639774.06886206,14170.308004442802, 1, 1,15,226724.92807108485, 1,21,15
85,1166566162.6372848,95718.73441333045, 1, 4,15,876438.6073308148, 1,20,15
202,63011583.1442832,21160.2416661062, 1,13,30,21369.85080890723, 6, 1,30
538,616304453.8327937,-2008765.969093265, 6,13,30,2089334.5467982875, 6, 7,15
677,4878985.470914301,0.0, 1, 1,15,217763.56182807903,30,20,15
715,348970603.5882224,0.0, 1,13,30,1619682.8259780505, 6, 5,60
4,120, 4
48,212554620.06664083,14170.308004442802, 1, 1,15,226724.92807108485, 1,21,15
85,1128934996.100597,95718.73441333045, 1, 4,15,876438.6073308148, 1,20,15
202,60973548.97860372,21160.2416661062, 1, 1,15,21369.85080890723, 4, 5,45
538,471936236.1715695,-1866090.6725743388, 2,12,60,1726259.5989956065, 7, 6,30
677,139507315.51602633,0.0, 1, 1,15,602505.5088083308,25,17,15
715,99083682.59300205,0.0, 1, 1,15,1378854.5233127159, 7, 5,60
4,151, 5
48,219639774.06886206,14170.308004442802, 1, 1,15,226724.92807108485, 1,21,15
85,1166566162.6372848,95718.73441333045, 1, 4,15,876438.6073308148, 1,20,15
202,63037894.269134189,21160.2416661062, 1, 1,15,21288.436280696485, 8,18,15
538,947742277.9036357,-1542716.872649816, 2,12,60,1776842.041606184, 7,20,15
677,568303887.5509319,0.0, 1, 1,15,755479.6915941088, 7,18,15
715,0.0,0.0, 1, 1,15,0.0, 1, 1,15
4,181, 6
48,212554620.06664083,14170.308004442802, 1, 1,15,226724.92807108485, 1,21,15
85,1128934996.100597,95718.73441333045, 1, 4,15,876438.6073308148, 1,20,15
202,61100669.19508116,21160.2416661062, 1, 1,45,21369.85080890723,24,18,15
538,1468266734.5217939,-1072888.806127766,14,12,30,2092148.9681668289,28,20,15
677,1154833029.3645519,0.0, 1, 1,45,965678.0406108392,28,15,60
715,0.0,0.0, 1, 1,15,0.0, 1, 1,15
4,212, 7
48,219639774.06886206,14170.308004442802, 1, 1,15,226724.92807108485, 1,21,15
85,1166566162.6372848,95718.73441333045, 1, 4,15,876438.6073308148, 1,20,15
202,63186136.02570819,21160.2416661062,12, 3,45,21369.85080890723, 1,14,15
538,1860349040.0947037,-853047.5564599773,25,12,30,2083687.494076643,30,20,15
677,1493520992.999127,0.0,12, 3,45,959604.4896805817,30,14,60
715,0.0,0.0, 1, 1,15,0.0, 1, 1,15
4,243, 8
48,219639774.06886206,14170.308004442802, 1, 1,15,226724.92807108485, 1,21,15
85,1166566162.6372848,95718.73441333045, 1, 4,15,876438.6073308148, 1,20,15
202,63201303.17427085,21160.2416661062, 8, 4,60,21369.85080890723, 1,15,15
538,1789466409.8977755,-795470.5106285361, 7,12,45,2092916.901701813, 5,20,15
677,1508076892.5710402,0.0, 8, 4,60,947763.1898263322, 5,13,60
715,0.0,0.0, 1, 1,15,0.0, 1, 1,15
4,273, 9
48,212554620.06664083,14170.308004442802, 1, 1,15,226724.92807108485, 1,21,15
85,1128934996.100597,95718.73441333045, 1, 4,15,876438.6073308148, 1,20,15
202,61045175.951513078,21160.2416661062, 4, 1,15,21369.85080890723, 1,17,15
538,1178619180.99479,-1305639.911885961,29,11,30,2066496.8178304856, 2,20,15
677,857848635.4403389,0.0, 4, 1,15,930213.1517538027, 2,15,60
715,0.0,0.0, 1, 1,15,0.0, 1, 1,15
4,304,10
48,219639774.06886206,14170.308004442802, 1, 1,15,226724.92807108485, 1,21,15
85,1166566162.6372848,95718.73441333045, 1, 4,15,876438.6073308148, 1,20,15
202,63006266.639646347,21160.2416661062, 1, 1,15,21253.69943696122, 2,17,15
538,425482257.3143036,-1841341.8492581794,24,11,60,1689161.2685940865, 2,20,15
677,270085802.8772216,0.0, 1, 1,15,675393.1542519834, 2,17,15
715,0.0,0.0, 1, 1,15,0.0, 1, 1,15
4,334,11
48,212554620.06664083,14170.308004442802, 1, 1,15,226724.92807108485, 1,21,15
85,1128934996.100597,95718.73441333045, 1, 4,15,876438.6073308148, 1,20,15
202,61005821.466480489,21160.2416661062, 1, 1,15,21369.85080890723,17, 3,45
538,799410355.7454063,-1920132.3129939456,17,12,30,1987320.6036984919,26, 5,15
677,42670869.79586414,0.0, 1, 1,15,367043.67621435088, 8,15,30
715,331886231.02574637,0.0, 1, 1,15,1797299.1426612328,26, 4,60
4,365,12
48,219639774.06886206,14170.308004442802, 1, 1,15,226724.92807108485, 1,21,15
85,1166566162.6372848,95718.73441333045, 1, 4,15,876438.6073308148, 1,20,15
202,63181377.15659327,21160.2416661062, 1,12,45,21369.85080890723, 1, 1,15
538,2287602981.6080925,-1931604.2699109677, 1,12,30,3052310.7276357028,18, 7,45
677,0.0,0.0, 1, 1,15,0.0, 1, 1,15
715,1749939567.0280457,0.0, 1,12,45,2642112.5068363987,18, 4,60
End of Data
 Number of Records Written=         120
