Program Version,EnergyPlus, Version 9.5.0-de239b2e5f, YMD=2023.03.15 17:54
1,5,Environment Title[],Latitude[deg],Longitude[deg],Time Zone[],Elevation[m]
2,8,Day of Simulation[],Month[],Day of Month[],DST Indicator[1=yes 0=no],Hour[],StartMinute[],EndMinute[],DayType
3,5,Cumulative Day of Simulation[],Month[],Day of Month[],DST Indicator[1=yes 0=no],DayType  ! When Daily Meters Requested
4,2,Cumulative Days of Simulation[],Month[]  ! When Monthly Meters Requested
5,1,Cumulative Days of Simulation[] ! When Run Period Meters Requested
6,1,Calendar Year of Simulation[] ! When Annual Meters Requested
49,9,InteriorEquipment:Electricity [J] !Monthly [Value,Min,Day,Hour,Minute,Max,Day,Hour,Minute]
89,9,Fans:Electricity [J] !Monthly [Value,Min,Day,Hour,Minute,Max,Day,Hour,Minute]
599,9,Heating:Electricity [J] !Monthly [Value,Min,Day,Hour,Minute,Max,Day,Hour,Minute]
561,9,Cooling:Electricity [J] !Monthly [Value,Min,Day,Hour,Minute,Max,Day,Hour,Minute]
426,9,ElectricityNet:Facility [J] !Monthly [Value,Min,Day,Hour,Minute,Max,Day,Hour,Minute]
End of Data Dictionary
1,CHICAGO MIDWAY AP ANN HTG 99.6% CONDNS DB HVAC Sizing Pass 1,  41.78, -87.75,  -6.00, 186.00
4,1, 1
49,4389.041375999999,45.719181,21, 1,15,45.719181,21, 1,15
89,3395720.2898603638,35372.086352712155,21, 1,15,35372.086352712155,21, 1,15
426,467583638.75489708,3954517.1624242526,21, 1,30,5023384.293263681,21,17,60
561,0.0,0.0,21, 1,15,0.0,21, 1,15
599,464131329.423661,3918199.35689054,21, 1,30,4987066.48772997,21, 9,15
1,CHICAGO MIDWAY AP ANN HTG 99% CONDNS DB HVAC Sizing Pass 1,  41.78, -87.75,  -6.00, 186.00
4,1, 1
49,4389.041375999999,45.719181,21, 1,15,45.719181,21, 1,15
89,3395720.2898603638,35372.086352712155,21, 1,15,35372.086352712155,21, 1,15
426,435380474.3400727,3366621.3650377287,21, 1,30,5023384.293263681,21,21,15
561,0.0,0.0,21, 1,15,0.0,21, 1,15
599,431928165.0088363,3330303.559504016,21, 1,30,4987066.48772997,21,21,15
1,CHICAGO MIDWAY AP ANN CLG .4% CONDNS DB=>MWB HVAC Sizing Pass 1,  41.78, -87.75,  -6.00, 186.00
4,1, 7
49,67967992.86192008,707999.925645,21, 1,15,707999.925645,21, 1,15
89,3371668.12383707,35121.54295663608,21, 1,15,35121.54295663608,21, 1,15
426,18574372.554255874,-1051509.5405457165,21,12,60,744021.468601636,21, 1,15
561,0.0,0.0,21, 1,15,0.0,21, 1,15
599,0.0,0.0,21, 1,15,0.0,21, 1,15
1,CHICAGO MIDWAY AP ANN CLG 1% CONDNS DB=>MWB HVAC Sizing Pass 1,  41.78, -87.75,  -6.00, 186.00
4,1, 7
49,67967992.86192008,707999.925645,21, 1,15,707999.925645,21, 1,15
89,3371668.12383707,35121.54295663608,21, 1,15,35121.54295663608,21, 1,15
426,18187977.394775906,-1064927.987034455,21,12,60,744021.468601636,21, 1,15
561,0.0,0.0,21, 1,15,0.0,21, 1,15
599,0.0,0.0,21, 1,15,0.0,21, 1,15
1,ANNUAL,  41.78, -87.75,  -6.00, 186.00
