Program Version,EnergyPlus, Version 9.5.0-de239b2e5f, YMD=2023.03.23 08:30
1,5,Environment Title[],Latitude[deg],Longitude[deg],Time Zone[],Elevation[m]
2,8,Day of Simulation[],Month[],Day of Month[],DST Indicator[1=yes 0=no],Hour[],StartMinute[],EndMinute[],DayType
3,5,Cumulative Day of Simulation[],Month[],Day of Month[],DST Indicator[1=yes 0=no],DayType  ! When Daily Meters Requested
4,2,Cumulative Days of Simulation[],Month[]  ! When Monthly Meters Requested
5,1,Cumulative Days of Simulation[] ! When Run Period Meters Requested
6,1,Calendar Year of Simulation[] ! When Annual Meters Requested
48,9,InteriorLights:Electricity [J] !Monthly [Value,Min,Day,Hour,Minute,Max,Day,Hour,Minute]
85,9,InteriorEquipment:Electricity [J] !Monthly [Value,Min,Day,Hour,Minute,Max,Day,Hour,Minute]
202,9,Fans:Electricity [J] !Monthly [Value,Min,Day,Hour,Minute,Max,Day,Hour,Minute]
740,9,Heating:Electricity [J] !Monthly [Value,Min,Day,Hour,Minute,Max,Day,Hour,Minute]
779,9,Cooling:Electricity [J] !Monthly [Value,Min,Day,Hour,Minute,Max,Day,Hour,Minute]
538,9,ElectricityNet:Facility [J] !Monthly [Value,Min,Day,Hour,Minute,Max,Day,Hour,Minute]
691,9,NaturalGas:Facility [J] !Monthly [Value,Min,Day,Hour,Minute,Max,Day,Hour,Minute]
End of Data Dictionary
1,CHICAGO MIDWAY AP ANN HTG 99.6% CONDNS DB HVAC Sizing Pass 1,  41.78, -87.75,  -6.00, 186.00
4,1, 1
48,0.0,0.0,21, 1,15,0.0,21, 1,15
85,4389041.095890413,45719.17808219178,21, 1,15,45719.17808219178,21, 1,15
202,10728843.62543965,85737.56016852547,21, 1,15,123260.10122151065,21,24,60
538,16044099.935201666,141356.73825071727,21, 1,15,179299.23576899607,21,24,15
691,463268436.27718588,3393859.599839834,21, 1,15,5764414.552218406,21,24,15
740,0.0,0.0,21, 1,15,0.0,21, 1,15
779,0.0,0.0,21, 1,15,0.0,21, 1,15
1,CHICAGO MIDWAY AP ANN HTG 99% CONDNS DB HVAC Sizing Pass 1,  41.78, -87.75,  -6.00, 186.00
4,1, 1
48,0.0,0.0,21, 1,15,0.0,21, 1,15
85,4389041.095890413,45719.17808219178,21, 1,15,45719.17808219178,21, 1,15
202,9828013.928770507,76748.4928758931,21, 1,15,113606.95638680615,21,24,60
538,15143270.194418421,132367.67095808488,21, 1,15,169666.1196907749,21,24,15
691,415925323.54343619,2921439.359541939,21, 1,15,5258145.188971733,21,24,15
740,0.0,0.0,21, 1,15,0.0,21, 1,15
779,0.0,0.0,21, 1,15,0.0,21, 1,15
1,CHICAGO MIDWAY AP ANN CLG .4% CONDNS DB=>MWB HVAC Sizing Pass 1,  41.78, -87.75,  -6.00, 186.00
4,1, 7
48,0.0,0.0,21, 1,15,0.0,21, 1,15
85,70954051.33685301,739104.7014255518,21, 1,15,739104.7014255518,21, 1,15
202,7158183.480949886,37761.82617823717,21, 5,30,109084.74495783929,21,18,15
538,67058406.86015927,-421389.02932392337,21,12,45,1420711.6440908332,21,19,60
691,4938860.678897547,0.0,21, 1,15,411574.7984676664,21,10,30
740,0.0,0.0,21, 1,15,0.0,21, 1,15
779,40839448.31940926,130080.00051522083,21, 5,30,705231.881528273,21,17,60
1,CHICAGO MIDWAY AP ANN CLG 1% CONDNS DB=>MWB HVAC Sizing Pass 1,  41.78, -87.75,  -6.00, 186.00
4,1, 7
48,0.0,0.0,21, 1,15,0.0,21, 1,15
85,70954051.33685301,739104.7014255518,21, 1,15,739104.7014255518,21, 1,15
202,6401119.958066685,28371.984512863422,21, 5,30,100373.14917563551,21,18,15
538,59519698.13044171,-512643.6571381372,21,12,45,1339361.122890865,21,19,60
691,4938865.937626008,0.0,21, 1,15,411575.15166539038,21,10,30
740,0.0,0.0,21, 1,15,0.0,21, 1,15
779,34444198.26352381,56320.05034098298,21, 5,30,626059.3280631242,21,17,60
1,CHICAGO MIDWAY AP ANN HTG 99.6% CONDNS DB,  41.78, -87.75,  -6.00, 186.00
4,1, 1
48,0.0,0.0,21, 1,15,0.0,21, 1,15
85,4389041.095890413,45719.17808219178,21, 1,15,45719.17808219178,21, 1,15
202,10735309.477493272,85812.12335324599,21, 1,15,123324.29881849661,21,24,60
538,16050565.787249066,141431.30143543779,21, 1,15,179363.379135297,21,24,15
691,463608248.9904535,3397778.266426291,21, 1,15,5767785.604878257,21,24,15
740,0.0,0.0,21, 1,15,0.0,21, 1,15
779,0.0,0.0,21, 1,15,0.0,21, 1,15
1,CHICAGO MIDWAY AP ANN HTG 99% CONDNS DB,  41.78, -87.75,  -6.00, 186.00
4,1, 1
48,0.0,0.0,21, 1,15,0.0,21, 1,15
85,4389041.095890413,45719.17808219178,21, 1,15,45719.17808219178,21, 1,15
202,9828007.852206655,76748.42276233915,21, 1,15,113606.89618006465