Program Version,EnergyPlus, Version 9.5.0-de239b2e5f, YMD=2023.03.01 00:37
1,5,Environment Title[],Latitude[deg],Longitude[deg],Time Zone[],Elevation[m]
2,8,Day of Simulation[],Month[],Day of Month[],DST Indicator[1=yes 0=no],Hour[],StartMinute[],EndMinute[],DayType
3,5,Cumulative Day of Simulation[],Month[],Day of Month[],DST Indicator[1=yes 0=no],DayType  ! When Daily Meters Requested
4,2,Cumulative Days of Simulation[],Month[]  ! When Monthly Meters Requested
5,1,Cumulative Days of Simulation[] ! When Run Period Meters Requested
6,1,Calendar Year of Simulation[] ! When Annual Meters Requested
49,9,InteriorEquipment:Electricity [J] !Monthly [Value,Min,Day,Hour,Minute,Max,Day,Hour,Minute]
87,9,Fans:Electricity [J] !Monthly [Value,Min,Day,Hour,Minute,Max,Day,Hour,Minute]
596,9,Heating:Electricity [J] !Monthly [Value,Min,Day,Hour,Minute,Max,Day,Hour,Minute]
558,9,Cooling:Electricity [J] !Monthly [Value,Min,Day,Hour,Minute,Max,Day,Hour,Minute]
424,9,ElectricityNet:Facility [J] !Monthly [Value,Min,Day,Hour,Minute,Max,Day,Hour,Minute]
End of Data Dictionary
1,CHICAGO MIDWAY AP ANN HTG 99.6% CONDNS DB HVAC Sizing Pass 1,  41.78, -87.75,  -6.00, 186.00
4,1, 1
49,4389.041375999999,45.719181,21, 1,15,45.719181,21, 1,15
87,3390717.6187564178,35319.97519537933,21, 1,15,35319.97519537933,21, 1,15
424,454306076.8108551,3816083.468221336,21, 1,30,4885353.193694186,21,17,60
558,0.0,0.0,21, 1,15,0.0,21, 1,15
596,450858770.15072378,3779817.7738449575,21, 1,30,4849087.499317807,21, 9,15
1,CHICAGO MIDWAY AP ANN HTG 99% CONDNS DB HVAC Sizing Pass 1,  41.78, -87.75,  -6.00, 186.00
4,1, 1
49,4389.041375999999,45.719181,21, 1,15,45.719181,21, 1,15
87,3390717.6187564178,35319.97519537933,21, 1,15,35319.97519537933,21, 1,15
424,421968190.055871,3214995.139834728,21, 1,30,4885353.193694186,21,21,15
558,0.0,0.0,21, 1,15,0.0,21, 1,15
596,418520883.3957391,3178729.445458349,21, 1,30,4849087.499317807,21,21,15
1,CHICAGO MIDWAY AP ANN CLG .4% CONDNS DB=>MWB HVAC Sizing Pass 1,  41.78, -87.75,  -6.00, 186.00
4,1, 7
49,4389.041375999999,45.719181,21, 1,15,45.719181,21, 1,15
87,3371668.12383707,35121.54295663608,21, 1,15,35121.54295663608,21, 1,15
424,-49389231.266288127,-1759463.7470097168,21,12,60,36067.26213763608,21, 1,15
558,0.0,0.0,21, 1,15,0.0,21, 1,15
596,0.0,0.0,21, 1,15,0.0,21, 1,15
1,CHICAGO MIDWAY AP ANN CLG 1% CONDNS DB=>MWB HVAC Sizing Pass 1,  41.78, -87.75,  -6.00, 186.00
4,1, 7
49,4389.041375999999,45.719181,21, 1,15,45.719181,21, 1,15
87,3371668.12383707,35121.54295663608,21, 1,15,35121.54295663608,21, 1,15
424,-49775626.425768088,-1772882.193498455,21,12,60,36067.26213763608,21, 1,15
558,0.0,0.0,21, 1,15,0.0,21, 1,15
596,0.0,0.0,21, 1,15,0.0,21, 1,15
1,ANNUAL,  41.78, -87.75,  -6.00, 186.00
4,31, 1
49,136060.2826559899,45.719181, 1, 1,15,45.719181, 1, 1,15
87,104965784.5223744,35121.542956636076,27, 1,15,35319.97519537933, 1, 2,30
424,5932838912.724294,-2336161.2601465887,30,12,60,4885353.193694186, 6, 1,30
558,0.0,0.0, 1, 1,15,0.0, 1, 1,15
596,6738724592.377703,60700.80785003581, 2,21,60,4849087.499317807, 6, 1,30
4,59, 2
49,122893.15852799188,45.719181, 1, 1,15,45.719181, 1, 1,15
87,94660034.83183162,35121.54295663608, 1, 1,15,35319.97519537933,11, 1,60
424,2656978486.459744,-2453170.709962741, 3,13,30,5283238.090986555,11, 1,15
558,0.0,0.0, 1, 1,15,0.0, 1, 1,15
596,3512998443.683223,0.0,10,11,45,5246972.396610176,11, 1,15
4,90, 3
49,136060.2826559899,45.719181, 1, 1,15,45.719181, 1, 1,15
87,104798963.6971515,35121.54295663608,11,10,45,35319.97519537933, 1, 1,15
424,2150152614.513049,-2258386.0456366285,11,13,15,4356927.5231843669, 2, 7,30
558,0.0,0.0, 1, 1,15,0.0, 1, 1,15
596,3109334110.3344757,0.0,11,10,45,4320661.828807989, 2, 7,30
4,120, 4
49,131671.24127999057,45.719181, 1, 1,15,45.719181, 1, 1,15
87,101198703.59797348,35121.54295663608, 1,12,45,35319.97519537933,19, 5,30
424,-363133214.0404492,-2289153.0586339517,10,12,60,1309125.960730711,19, 6,30
558,1435013.0372935036,0.0, 1, 1,15,137291.1381269808, 4,17,15
596,596340610.7490234,0.0, 1,12,45,1273760.2663543313,19, 6,30
4,151, 5
49,136060.2826559899,45.719181, 1, 1,15,45.719181, 1, 1,15
87,104535266.27288671,35121.54295663608, 1, 1,15,35220.1414378005, 3, 5,45
424,-1015449438.2111937,-2115474.51169142, 2,12,45,1049813.1193175037, 3, 5,45
558,20149607.264144556,0.0, 1, 1,15,334518.95596527468,27,17,60
596,128504533.03746778,0.0, 1, 1,15,1013647.2586987031, 3, 5,45
4,181, 6
49,131671.24127999057,45.719181, 1, 1,15,45.719181, 1, 1,15
87,101281362.00241003,35121.54295663608, 1, 1,15,35319.97519537933,11,14,30
424,-267435520.15358455,-1767495.8266352453, 8,12,60,914585.4373831265,14,20,30
558,812046259.9216129,0.0, 1, 1,15,911124.3945180762,14,15,60
596,19138318.74871774,0.0, 1, 1,30,253682.43722701813, 4,23,45
4,212, 7
49,136060.2826559899,45.719181, 1, 1,15,45.719181, 1, 1,15
87,104648706.33655946,35121.542956636076,20, 1,30,35319.97519537933,10,14,45
424,-384863580.08185139,-1717046.5840655764,24,12,60,916209.7790690579,17,20,30
558,835306910.0078902,0.0, 1,23,15,899100.4339165058,17,15,60
596,0.0,0.0, 1, 1,15,0.0, 1, 1,15
4,243, 8
49,136060.2826559899,45.719181, 1, 1,15,45.719181, 1, 1,15
87,104707362.27038968,35121.54295663608, 6, 3,60,35319.97519537933, 1, 9,45
424,-30268542.536085898,-1414783.906897301, 7,12,45,948119.099597755, 1,20,15
558,1194936625.2096627,0.0, 6, 3,60,928834.4717231175, 1,16,60
596,0.0,0.0, 1, 1,15,0.0, 1, 1,15
4,273, 9
49,131671.24127999057,45.719181, 1, 1,15,45.719181, 1, 1,15
87,101266053.64691378,35121.54295663608, 1, 6,15,35319.97519537933, 5,14,30
424,-468953333.0160324,-1876013.5473878277,23,12,30,934650.7784392432, 6,19,15
558,754560809.7773069,0.0, 1, 6,15,929487.7860315414, 6,15,60
596,0.0,0.0, 1, 1,15,0.0, 1, 1,15
4,304,10
49,136060.2826559899,45.719181, 1, 1,15,45.719181, 1, 1,15
87,104579840.9668104,35121.54295663608, 1, 1,15,35319.97519537933, 3,13,45
424,-456002741.0718811,-2129327.9698625209,15,12,30,1205743.18910853,28, 6,60
558,179070797.220178,0.0, 1, 1,15,865341.7858679491, 4,13,60
596,362613090.86097809,0.0, 1, 1,15,1169479.4998715185,28, 6,60
4,334,11
49,131671.24127999057,45.719181, 1, 1,15,45.719181, 1, 1,15
87,101257787.36702408,35121.54295663608, 1, 8,30,35319.97519537933, 3, 4,60
424,183512849.40457119,-2042049.0859655343, 4,12,30,2979138.399524524,30, 7,60
558,966894.0464201319,0.0, 1, 1,15,141128.9200010001,10,14,30
596,1288312396.3971265,0.0, 1, 8,30,2942872.7051481448,30, 7,60
4,365,12
49,136060.2826559899,45.719181, 1, 1,15,45.719181, 1, 1,15
87,104942140.57114366,35121.54295663608, 5,13,15,35319.97519537933, 1, 1,15
424,4879278230.492546,-2083700.9750150485,31,12,45,4885353.193694186,19, 7,30
558,0.0,0.0, 1, 1,15,0.0, 1, 1,15
596,5806602103.523267,0.0, 9,12,60,4849087.499317807,19, 7,30
End of Data
 Number of Records Written=          80
