Program Version,EnergyPlus, Version 9.5.0-de239b2e5f, YMD=2023.03.03 16:10
1,5,Environment Title[],Latitude[deg],Longitude[deg],Time Zone[],Elevation[m]
2,8,Day of Simulation[],Month[],Day of Month[],DST Indicator[1=yes 0=no],Hour[],StartMinute[],EndMinute[],DayType
3,5,Cumulative Day of Simulation[],Month[],Day of Month[],DST Indicator[1=yes 0=no],DayType  ! When Daily Meters Requested
4,2,Cumulative Days of Simulation[],Month[]  ! When Monthly Meters Requested
5,1,Cumulative Days of Simulation[] ! When Run Period Meters Requested
6,1,Calendar Year of Simulation[] ! When Annual Meters Requested
49,9,InteriorEquipment:Electricity [J] !Monthly [Value,Min,Day,Hour,Minute,Max,Day,Hour,Minute]
89,9,Fans:Electricity [J] !Monthly [Value,Min,Day,Hour,Minute,Max,Day,Hour,Minute]
599,9,Heating:Electricity [J] !Monthly [Value,Min,Day,Hour,Minute,Max,Day,Hour,Minute]
561,9,Cooling:Electricity [J] !Monthly [Value,Min,Day,Hour,Minute,Max,Day,Hour,Minute]
426,9,ElectricityNet:Facility [J] !Monthly [Value,Min,Day,Hour,Minute,Max,Day,Hour,Minute]
End of Data Dictionary
1,CHICAGO MIDWAY AP ANN HTG 99.6% CONDNS DB HVAC Sizing Pass 1,  41.78, -87.75,  -6.00, 186.00
4,1, 1
49,4389.041375999999,45.719181,21, 1,15,45.719181,21, 1,15
89,3397097.598627176,35386.43331903301,21, 1,15,35386.43331903301,21, 1,15
426,454313499.80516627,3817991.1281802237,21, 1,30,4885419.651817839,21,17,60
561,0.0,0.0,21, 1,15,0.0,21, 1,15
599,450859813.16516306,3781658.9756801908,21, 1,30,4849087.499317807,21, 9,15
1,CHICAGO MIDWAY AP ANN HTG 99% CONDNS DB HVAC Sizing Pass 1,  41.78, -87.75,  -6.00, 186.00
4,1, 1
49,4389.041375999999,45.719181,21, 1,15,45.719181,21, 1,15
89,3397097.598627176,35386.43331903301,21, 1,15,35386.43331903301,21, 1,15
426,421972591.26625397,3216776.401118026,21, 1,30,4885419.651817839,21,21,15
561,0.0,0.0,21, 1,15,0.0,21, 1,15
599,418518904.6262508,3180444.2486179929,21, 1,30,4849087.499317807,21,21,15
1,CHICAGO MIDWAY AP ANN CLG .4% CONDNS DB=>MWB HVAC Sizing Pass 1,  41.78, -87.75,  -6.00, 186.00
4,1, 7
49,73843192.86192002,769199.925645,21, 1,15,769199.925645,21, 1,15
89,3371668.12383707,35121.54295663608,21, 1,15,35121.54295663608,21, 1,15
426,24449572.553678458,-990309.5405457165,21,12,60,805221.468601636,21, 1,15
561,0.0,0.0,21, 1,15,0.0,21, 1,15
599,0.0,0.0,21, 1,15,0.0,21, 1,15
1,CHICAGO MIDWAY AP ANN CLG 1% CONDNS DB=>MWB HVAC Sizing Pass 1,  41.78, -87.75,  -6.00, 186.00
4,1, 7
49,73843192.86192002,769199.925645,21, 1,15,769199.925645,21, 1,15
89,3371668.12383707,35121.54295663608,21, 1,15,35121.54295663608,21, 1,15
426,24063177.394775914,-1003727.9870344549,21,12,60,805221.468601636,21, 1,15
561,0.0,0.0,21, 1,15,0.0,21, 1,15
599,0.0,0.0,21, 1,15,0.0,21, 1,15
1,ANNUAL,  41.78, -87.75,  -6.00, 186.00
4,31, 1
49,136060.2826559899,45.719181, 1, 1,15,45.719181, 1, 1,15
89,105091050.71964096,35121.542956636076,27, 1,15,35386.43331903301, 1, 2,30
426,5939523259.400623,-2336161.2601465887,30,12,60,4885419.651817839, 6, 1,30
561,0.0,0.0, 1, 1,15,0.0, 1, 1,15
599,6745283672.856771,60902.32326426399, 2,21,60,4849087.499317807, 6, 1,30
4,59, 2
49,122893.15852799188,45.719181, 1, 1,15,45.719181, 1, 1,15
89,94720211.79008492,35121.54295663608, 1, 1,15,35386.43331903301,11, 1,30
426,2652248224.3672697,-2453170.709962741, 3,13,30,6235773.173922942,11, 1,45
561,0.0,0.0, 1, 1,15,0.0, 1, 1,15
599,3508208004.6324975,0.0,10,11,45,6199441.0214229109,11, 1,45
4,90, 3
49,136060.2826559899,45.719181, 1, 1,15,45.719181, 1, 1,15
89,104823607.59035301,35121.54295663608,11,10,45,35386.43331903301, 1, 1,15
426,2211911189.350482,-2258386.0456366285,11,13,15,4356836.947838172, 2, 7,30
561,0.0,0.0, 1, 1,15,0.0, 1, 1,15
599,3171068041.2787239,0.0,11,10,45,4320504.795338141, 2, 7,30
4,120, 4
49,131671.24127999057,45.719181, 1, 1,15,45.719181, 1, 1,15
89,101206894.89449413,35121.54295663608, 1,12,45,35278.73513024903,19, 6,30
426,-335871770.4433821,-2289153.0586339517,10,12,60,1358648.552627388,19, 6,30
561,1444444.6483507157,0.0, 1, 1,15,138338.14090316598, 4,17,15
599,623584431.4385105,0.0, 1,12,45,1323324.0983161384,19, 6,30
4,151, 5
49,136060.2826559899,45.719181, 1, 1,15,45.719181, 1, 1,15
89,104539032.14378634,35121.54295663608, 1, 1,15,35184.87110231175, 3, 5,45
426,-1011980406.470109,-2115474.51169142, 2,12,45,1125826.8675423898, 3, 5,45
561,20351508.793007729,0.0, 1, 1,15,339943.3513262401,27,17,60
599,131767897.37878816,0.0, 1, 1,15,1089696.2772590779, 3, 5,45
4,181, 6
49,131671.24127999057,45.719181, 1, 1,15,45.719181, 1, 1,15
89,101263892.06820122,35121.54295663608, 1, 1,15,35386.43331903301,13,16,15
426,-240458996.46248175,-1767495.8266352453, 8,12,60,963628.1670291193,13,18,60
561,838911075.1435593,0.0, 1, 1,15,1156337.1041064135,13,16,15
599,19267497.152081323,0.0, 1, 1,30,258022.39116163224, 4,23,45
4,212, 7
49,136060.2826559899,45.719181, 1, 1,15,45.719181, 1, 1,15
89,104626760.34295793,35121.542956636076,20, 1,30,35367.855984616486,17,16,30
426,-359757509.7701176,-1717046.5840655764,24,12,60,919846.0166140144,17,19,45
561,860434926.3132254,0.0, 1,22,60,1115537.1245002645,17,16,30
599,0.0,0.0, 1, 1,15,0.0, 1, 1,15
4,243, 8
49,136060.2826559899,45.719181, 1, 1,15,45.719181, 1, 1,15
89,104683862.30919506,35121.54295663608, 6, 3,60,35386.43331903301, 1,11,60
426,6667546.059439634,-1405950.6668506819, 7,12,45,1153761.4323256508, 1,19,45
561,1231896213.7663844,0.0, 6, 3,60,1171539.1161158654, 1,16,60
599,0.0,0.0, 1, 1,15,0.0, 1, 1,15
4,273, 9
49,131671.24127999057,45.719181, 1, 1,15,45.719181, 1, 1,15
89,101256884.88462024,35121.54295663608, 1, 6,15,35386.43331903301, 6,13,45
426,-446595635.7452052,-1875578.4740922373,23,12,30,1134406.8706595365, 6,18,60
561,776927675.8104231,0.0, 1, 6,15,1175084.2310578705, 6,15,60
599,0.0,0.0, 1, 1,15,0.0, 1, 1,15
4,304,10
49,136060.2826559899,45.719181, 1, 1,15,45.719181, 1, 1,15
89,104579242.69207447,35121.54295663608, 1, 1,15,35340.503630640655, 4,16,30
426,-433748141.38620826,-2129327.9698625209,15,12,30,1307147.0632957174,28, 6,60
561,184107388.2041526,0.0, 1, 1,15,1040919.0374103244, 4,16,30
599,379831697.8374076,0.0, 1, 1,15,1270954.9520028828,28, 6,60
4,334,11
49,131671.24127999057,45.719181, 1, 1,15,45.719181, 1, 1,15
89,101257697.57061816,35121.54295663608, 1, 8,30,35386.43331903301, 3, 4,60
426,236865494.37881709,-2042049.0859655343, 4,12,30,2979200.9353006936,30, 7,60
561,971015.7898736708,0.0, 1, 1,15,142145.2729116437,10,14,30
599,1341661009.4243217,0.0, 1, 8,30,2942868.7828006607,30, 7,60
4,365,12
49,136060.2826559899,45.719181, 1, 1,15,45.719181, 1, 1,15
89,105027240.25240232,35121.54295663608, 5,13,15,35386.43331903301, 1, 1,15
426,4923392399.079614,-2083700.9750150485,31,12,45,4885419.651817839,19, 7,30
561,0.0,0.0, 1, 1,15,0.0, 1, 1,15
599,5850631172.429072,0.0, 9,12,60,4849087.499317807,19, 7,30
End of Data
 Number of Records Written=          80
