Program Version,EnergyPlus, Version 9.5.0-de239b2e5f, YMD=2023.06.01 15:29
1,5,Environment Title[],Latitude[deg],Longitude[deg],Time Zone[],Elevation[m]
2,8,Day of Simulation[],Month[],Day of Month[],DST Indicator[1=yes 0=no],Hour[],StartMinute[],EndMinute[],DayType
3,5,Cumulative Day of Simulation[],Month[],Day of Month[],DST Indicator[1=yes 0=no],DayType  ! When Daily Meters Requested
4,2,Cumulative Days of Simulation[],Month[]  ! When Monthly Meters Requested
5,1,Cumulative Days of Simulation[] ! When Run Period Meters Requested
6,1,Calendar Year of Simulation[] ! When Annual Meters Requested
49,9,InteriorLights:Electricity [kWh] !Monthly [Value,Min,Day,Hour,Minute,Max,Day,Hour,Minute]
86,9,InteriorEquipment:Electricity [kWh] !Monthly [Value,Min,Day,Hour,Minute,Max,Day,Hour,Minute]
203,9,Fans:Electricity [kWh] !Monthly [Value,Min,Day,Hour,Minute,Max,Day,Hour,Minute]
744,9,Heating:Electricity [kWh] !Monthly [Value,Min,Day,Hour,Minute,Max,Day,Hour,Minute]
783,9,Cooling:Electricity [kWh] !Monthly [Value,Min,Day,Hour,Minute,Max,Day,Hour,Minute]
540,9,ElectricityNet:Facility [kWh] !Monthly [Value,Min,Day,Hour,Minute,Max,Day,Hour,Minute]
695,9,NaturalGas:Facility [therm] !Monthly [Value,Min,Day,Hour,Minute,Max,Day,Hour,Minute]
End of Data Dictionary
1,CHICAGO MIDWAY AP ANN HTG 99.6% CONDNS DB HVAC Sizing Pass 1,  41.78, -87.75,  -6.00, 186.00
4,1, 1
49,0.0000000000000000,0.0000000000000000,21, 1,15,0.0000000000000000,21, 1,15
86,1.2191790575342472,1.2699781849315066E-002,21, 1,15,1.2699781849315066E-002,21, 1,15
203,4.5238018958087878,4.0096379118390736E-002,21, 1,15,5.0123272718407177E-002,21,24,60
540,5.9974811569430333,5.5546163167705796E-002,21, 1,15,6.5573056767722251E-002,21,24,60
695,7.7827264750961156,6.8457193302625258E-002,21, 1,15,8.6455758136381691E-002,21,24,60
744,0.0000000000000000,0.0000000000000000,21, 1,15,0.0000000000000000,21, 1,15
783,0.0000000000000000,0.0000000000000000,21, 1,15,0.0000000000000000,21, 1,15
1,CHICAGO MIDWAY AP ANN HTG 99% CONDNS DB HVAC Sizing Pass 1,  41.78, -87.75,  -6.00, 186.00
4,1, 1
49,0.0000000000000000,0.0000000000000000,21, 1,15,0.0000000000000000,21, 1,15
86,1.2191790575342472,1.2699781849315066E-002,21, 1,15,1.2699781849315066E-002,21, 1,15
203,3.9594139421008210,3.4307290638506557E-002,21, 1,15,4.4184129409498916E-002,21,24,60
540,5.4330932032350701,4.9757074687821631E-002,21, 1,15,5.9633913458813977E-002,21,24,60
695,6.7696337285861423,5.8065611573526528E-002,21, 1,15,7.5794823636968961E-002,21,24,60
744,0.0000000000000000,0.0000000000000000,21, 1,15,0.0000000000000000,21, 1,15
783,0.0000000000000000,0.0000000000000000,21, 1,15,0.0000000000000000,21, 1,15
1,CHICAGO MIDWAY AP ANN CLG .4% CONDNS DB=>MWB HVAC Sizing Pass 1,  41.78, -87.75,  -6.00, 186.00
4,1, 7
49,0.0000000000000000,0.0000000000000000,21, 1,15,0.0000000000000000,21, 1,15
86,19.709474472248356,0.20530702575258691,21, 1,15,0.20530702575258691,21, 1,15
203,0.18809118750488457,1.9592832031758828E-003,21, 1,15,1.9592832031758828E-003,21, 1,15
540,5.4805295618276944,-0.28874270150317050,21,12,60,0.21001631115576283,21, 1,15
695,0.0000000000000000,0.0000000000000000,21, 1,15,0.0000000000000000,21, 1,15
744,0.0000000000000000,0.0000000000000000,21, 1,15,0.0000000000000000,21, 1,15
783,0.0000000000000000,0.0000000000000000,21, 1,15,0.0000000000000000,21, 1,15
1,CHICAGO MIDWAY AP ANN CLG 1% CONDNS DB=>MWB HVAC Sizing Pass 1,  41.78, -87.75,  -6.00, 186.00
4,1, 7
49,0.0000000000000000,0.0000000000000000,21, 1,15,0.0000000000000000,21, 1,15
86,19.709474472248356,0.20530702575258691,21, 1,15,0.20530702575258691,21, 1,15
203,0.18809118750488457,1.9592832031758828E-003,21, 1,15,1.9592832031758828E-003,21, 1,15
540,5.3731974872176611,-0.29247005073191928,21,12,60,0.21001631115576283,21, 1,15
695,0.0000000000000000,0.0000000000000000,21, 1,15,0.0000000000000000,21, 1,15
744,0.0000000000000000,0.0000000000000000,21, 1,15,0.0000000000000000,21, 1,15
783,0.0000000000000000,0.0000000000000000,21, 1,15,0.0000000000000000,21, 1,15
1,CHICAGO MIDWAY AP ANN HTG 99.6% CONDNS DB,  41.78, -87.75,  -6.00, 186.00
4,1, 1
49,0.0000000000000000,0.0000000000000000,21, 1,15,0.0000000000000000,21, 1,15
86,1.2191790575342472,1.2699781849315066E-002,21, 1,15,1.2699781849315066E-002,21, 1,15
203,4.5255893898613211,4.0117019864053992E-002,21, 1,15,5.0141026361760377E-002,21,24,60
540,5.9992686509955666,5.5566803913369059E-002,21, 1,15,6.5590810411075451E-002,21,24,60
695,7.7859350787651946,6.8494244039758512E-002,21, 1,15,8.6487626441130352E-002,21,24,60
744,0.0000000000000000,0.0000000000000000,21, 1,15,0.0000000000000000,21, 1,15
783,0.0000000000000000,0.0000000000000000,21, 1,15,0.0000000000000000,21, 1,15
1,CHICAGO MIDWAY AP ANN HTG 99% CONDNS DB,  41.78, -87.75,  -6.00, 186.00
4,1, 1
49,0.0000000000000000,0.0000000000000000,21, 1,15,0.0000000000000000,21, 1,15
86,1.2191790575342472,1.2699781849315066E-002,21, 1,15,1.2699781849315066E-002,21, 1,15
203,3.9594122507809879,3.4307271124211232E-002,21, 1,15,4.4184112629718067E-002,21,24,60
540,5.4330915119152356,4.9757055173526292E-002,21, 1,15,5.9633896679033134E-002,21,24,60
695,6.7696306926179837,5.8065576544800414E-002,21, 1,15,7.5794793516775635E-002,21,24,60
744,0.0000000000000000,0.0000000000000000,21, 1,15,0.0000000000000000,21, 1,15
783,0.0000000000000000,0.0000000000000000,21, 1,15,0.0000000000000000,21, 1,15
1,CHICAGO MIDWAY AP ANN CLG .4% CONDNS DB=>MWB,  41.78, -87.75,  -6.00, 186.00
4,1, 7
49,0.0000000000000000,0.0000000000000000,21, 1,15,0.0000000000000000,21, 1,15
86,19.709474472248356,0.20530702575258691,21, 1,15,0.20530702575258691,21, 1,15
203,0.18809118750488457,1.9592832031758828E-003,21, 1,15,1.9592832031758828E-003,21, 1,15
540,5.4805295618276944,-0.28874270150317050,21,12,60,0.21001631115576283,21, 1,15
695,0.0000000000000000,0.0000000000000000,21, 1,15,0.0000000000000000,21, 1,15
744,0.0000000000000000,0.0000000000000000,21, 1,15,0.0000000000000000,21, 1,15
783,0.0000000000000000,0.0000000000000000,21, 1,15,0.0000000000000000,21, 1,15
1,CHICAGO MIDWAY AP ANN CLG 1% CONDNS DB=>MWB,  41.78, -87.75,  -6.00, 186.00
4,1, 7
49,0.0000000000000000,0.0000000000000000,21, 1,15,0.0000000000000000,21, 1,15
86,19.709474472248356,0.20530702575258691,21, 1,15,0.20530702575258691,21, 1,15
203,0.18809118750488457,1.9592832031758828E-003,21, 1,15,1.9592832031758828E-003,21, 1,15
540,5.3731974872176611,-0.29247005073191928,21,12,60,0.21001631115576283,21, 1,15
695,0.0000000000000000,0.0000000000000000,21, 1,15,0.0000000000000000,21, 1,15
744,0.0000000000000000,0.0000000000000000,21, 1,15,0.0000000000000000,21, 1,15
783,0.0000000000000000,0.0000000000000000,21, 1,15,0.0000000000000000,21, 1,15
1,ANNUAL,  41.78, -87.75,  -6.00, 186.00
4,31, 1
49,0.0000000000000000,0.0000000000000000, 1, 1,15,0.0000000000000000, 1, 1,15
86,37.794550783563814,1.2699781849315066E-002, 1, 1,15,1.2699781849315066E-002, 1, 1,15
203,62.903946078129962,1.9592832031758828E-003, 1, 1,15,5.0227887208429960E-002, 6, 8,15
540,-144.91378975530699,-0.69154386721057648,30,12,60,6.5677671257745027E-002, 6, 8,15
695,102.44790443999203,0.0000000000000000, 1, 1,15,8.6643544180229015E-002, 6, 8,15
744,0.0000000000000000,0.0000000000000000, 1, 1,15,0.0000000000000000, 1, 1,15
783,0.0000000000000000,0.0000000000000000, 1, 1,15,0.0000000000000000, 1, 1,15
4,59, 2
49,0.0000000000000000,0.0000000000000000, 1, 1,15,0.0000000000000000, 1, 1,15
86,34.137013610960587,1.2699781849315066E-002, 1, 1,15,1.2699781849315066E-002, 1, 1,15
203,61.846425003224070,1.9592832031758828E-003, 1, 1,15,9.6941240176561694E-002, 3, 1,15
540,-161.40867985874428,-0.71039532051479715, 2,12,60,0.11239102422587678, 3, 1,15
695,101.56251084901247,0.0000000000000000, 1, 1,15,0.17049536764005788, 3, 1,15
744,0.0000000000000000,0.0000000000000000, 1, 1,15,0.0000000000000000, 1, 1,15
783,0.0000000000000000,0.0000000000000000, 1, 1,15,0.0000000000000000, 1, 1,15
4,90, 3
49,0.0000000000000000,0.0000000000000000, 1, 1,15,0.0000000000000000, 1, 1,15
86,37.794550783563814,1.2699781849315066E-002, 1, 1,15,1.2699781849315066E-002, 1, 1,15
203,38.943503133500641,1.9592832031758828E-003,11,11,15,3.8254807066018109E-002, 2, 7,15
540,-211.41009876828591,-0.68351457228120061, 8,12,45,5.3704591115333176E-002, 2, 7,15
695,59.438214401617472,0.0000000000000000,11,11,15,6.5151518055347468E-002, 2, 7,15
744,0.0000000000000000,0.0000000000000000, 1, 1,15,0.0000000000000000, 1, 1,15
783,0.0000000000000000,0.0000000000000000, 1, 1,15,0.0000000000000000, 1, 1,15
4,120, 4
49,0.0000000000000000,0.0000000000000000, 1, 1,15,0.0000000000000000, 1, 1,15
86,36.575371726029410,1.2699781849315066E-002, 1, 1,15,1.2699781849315066E-002, 1, 1,15
203,15.534101651676419,1.9592832031758828E-003, 1,15,30,1.5547096235842618E-002,19, 6,30
540,-235.75720487823520,-0.62848598301079917,10,12,60,3.0915688504349496E-002,17, 4,60
695,17.755288908483795,0.0000000000000000, 1,15,30,2.4390518496876398E-002,19, 6,30
744,0.0000000000000000,0.0000000000000000, 1, 1,15,0.0000000000000000, 1, 1,15
783,0.0000000000000000,0.0000000000000000, 1, 1,15,0.0000000000000000, 1, 1,15
4,151, 5
49,0.0000000000000000,0.0000000000000000, 1, 1,15,0.0000000000000000, 1, 1,15
86,37.794550783563814,1.2699781849315066E-002, 1, 1,15,1.2699781849315066E-002, 1, 1,15
203,7.7901946650675598,1.9592832031758828E-003, 1, 1,15,1.3459755727531346E-002, 3, 5,45
540,-298.36122849107056,-0.58024190359819650, 2,12,45,5.4041873724541688E-002,27,19,30
695,3.2521657246854851,0.0000000000000000, 1, 1,15,2.0643681742878641E-002, 3, 5,45
744,0.0000000000000000,0.0000000000000000, 1, 1,15,0.0000000000000000, 1, 1,15
783,1.0517756883729457,0.0000000000000000, 1, 1,15,7.1074121325416711E-002,27,17,60
4,181, 6
49,0.0000000000000000,0.0000000000000000, 1, 1,15,0.0000000000000000, 1, 1,15
86,36.575371726029410,1.2699781849315066E-002, 1, 1,15,1.2699781849315066E-002, 1, 1,15
203,37.049702590372497,1.9592832031758828E-003, 1, 1,15,5.0236128202134786E-002,14,15,60
540,-13.948430154210921,-0.48358108042066245, 8,12,60,0.37030737390765556,13,18,30
695,0.70167362262681943,0.0000000000000000, 1, 1,15,7.0591313536708770E-003, 5, 7,60
744,0.0000000000000000,0.0000000000000000, 1, 1,15,0.0000000000000000, 1, 1,15
783,238.56929312886430,0.0000000000000000, 1, 1,15,0.39387421173106923,14,15,60
4,212, 7
49,0.0000000000000000,0.0000000000000000, 1, 1,15,0.0000000000000000, 1, 1,15
86,37.794550783563814,1.2699781849315066E-002, 1, 1,15,1.2699781849315066E-002, 1, 1,15
203,47.701119708252968,1.9592832031758824E-003,26,21,60,4.9936728220248507E-002,17,16,30
540,41.230646868068270,-0.46956739071814491,24,12,60,0.35731313874856946,17,19,30
695,0.0000000000000000,0.0000000000000000, 1, 1,15,0.0000000000000000, 1, 1,15
744,0.0000000000000000,0.0000000000000000, 1, 1,15,0.0000000000000000, 1, 1,15
783,316.33839172235361,0.0000000000000000, 1,21,60,0.38640574174395570,17,16,30
4,243, 8
49,0.0000000000000000,0.0000000000000000, 1, 1,15,0.0000000000000000, 1, 1,15
86,37.794550783563814,1.2699781849315066E-002, 1, 1,15,1.2699781849315066E-002, 1, 1,15
203,57.242328235137812,1.9592832031758828E-003, 6, 3,15,5.5748806981883427E-002, 1,15,15
540,125.73036180022150,-0.33345804672995966, 7,12,30,0.43995660177212986, 1,18,45
695,0.0000000000000000,0.0000000000000000, 1, 1,15,0.0000000000000000, 1, 1,15
744,0.0000000000000000,0.0000000000000000, 1, 1,15,0.0000000000000000, 1, 1,15
783,392.71171414554055,0.0000000000000000, 6, 3,15,0.43945893470872077, 1,15,15
4,273, 9
49,0.0000000000000000,0.0000000000000000, 1, 1,15,0.0000000000000000, 1, 1,15
86,36.575371726029410,1.2699781849315066E-002, 1, 1,15,1.2699781849315066E-002, 1, 1,15
203,38.121331713679716,1.9592832031758828E-003, 1, 4,45,5.9097330259097726E-002, 6,16,15
540,-41.043066001875616,-0.53526106286986763,23,12,15,0.40204897349954111, 6,18,30
695,0.0000000000000000,0.0000000000000000, 1, 1,15,0.0000000000000000, 1, 1,15
744,0.0000000000000000,0.0000000000000000, 1, 1,15,0.0000000000000000, 1, 1,15
783,245.09159357925932,0.0000000000000000, 1, 4,45,0.46535864222638396, 6,15,60
4,304,10
49,0.0000000000000000,0.0000000000000000, 1, 1,15,0.0000000000000000, 1, 1,15
86,37.794550783563814,1.2699781849315066E-002, 1, 1,15,1.2699781849315066E-002, 1, 1,15
203,16.782748443061831,1.9592832031758828E-003, 1, 1,15,4.7633556407515536E-002, 4,16,30
540,-189.53909763800579,-0.58409008950204866,15,12,30,0.30577799333095801, 4,17,60
695,6.7873717764852257,0.0000000000000000, 1, 1,15,2.3577661746004685E-002,28, 6,60
744,0.0000000000000000,0.0000000000000000, 1, 1,15,0.0000000000000000, 1, 1,15
783,54.666767273514708,0.0000000000000000, 1, 1,15,0.35445768681648915, 4,16,30
4,334,11
49,0.0000000000000000,0.0000000000000000, 1, 1,15,0.0000000000000000, 1, 1,15
86,36.575371726029410,1.2699781849315066E-002, 1, 1,15,1.2699781849315066E-002, 1, 1,15
203,19.718959390961754,1.9592832031758828E-003, 1, 8,30,2.5355456163053670E-002,30, 7,60
540,-271.82701461522845,-0.57138556580817712,21,12,45,4.0805240212368747E-002,30, 7,60
695,25.267229928826318,0.0000000000000000, 1, 8,30,4.1996809049559332E-002,30, 7,60
744,0.0000000000000000,0.0000000000000000, 1, 1,15,0.0000000000000000, 1, 1,15
783,0.0000000000000000,0.0000000000000000, 1, 1,15,0.0000000000000000, 1, 1,15
4,365,12
49,0.0000000000000000,0.0000000000000000, 1, 1,15,0.0000000000000000, 1, 1,15
86,37.794550783563814,1.2699781849315066E-002, 1, 1,15,1.2699781849315066E-002, 1, 1,15
203,59.869170387741597,1.9592832031758828E-003, 9,12,15,4.9401889305721092E-002,24, 8,15
540,-181.67485615618972,-0.60115016741838534,24,12,60,6.4851673355036166E-002,24, 8,15
695,97.000394054592633,0.0000000000000000, 9,12,15,8.5160853987482979E-002,24, 8,15
744,0.0000000000000000,0.0000000000000000, 1, 1,15,0.0000000000000000, 1, 1,15
783,0.0000000000000000,0.0000000000000000, 1, 1,15,0.0000000000000000, 1, 1,15
End of Data
 Number of Records Written=         140
