Program Version,EnergyPlus, Version 9.5.0-de239b2e5f, YMD=2023.05.18 16:59
1,5,Environment Title[],Latitude[deg],Longitude[deg],Time Zone[],Elevation[m]
2,8,Day of Simulation[],Month[],Day of Month[],DST Indicator[1=yes 0=no],Hour[],StartMinute[],EndMinute[],DayType
3,5,Cumulative Day of Simulation[],Month[],Day of Month[],DST Indicator[1=yes 0=no],DayType  ! When Daily Meters Requested
4,2,Cumulative Days of Simulation[],Month[]  ! When Monthly Meters Requested
5,1,Cumulative Days of Simulation[] ! When Run Period Meters Requested
6,1,Calendar Year of Simulation[] ! When Annual Meters Requested
49,9,InteriorLights:Electricity [kWh] !Monthly [Value,Min,Day,Hour,Minute,Max,Day,Hour,Minute]
86,9,InteriorEquipment:Electricity [kWh] !Monthly [Value,Min,Day,Hour,Minute,Max,Day,Hour,Minute]
203,9,Fans:Electricity [kWh] !Monthly [Value,Min,Day,Hour,Minute,Max,Day,Hour,Minute]
760,9,Heating:Electricity [kWh] !Monthly [Value,Min,Day,Hour,Minute,Max,Day,Hour,Minute]
722,9,Cooling:Electricity [kWh] !Monthly [Value,Min,Day,Hour,Minute,Max,Day,Hour,Minute]
581,9,ElectricityNet:Facility [kWh] !Monthly [Value,Min,Day,Hour,Minute,Max,Day,Hour,Minute]
End of Data Dictionary
1,CHICAGO MIDWAY AP ANN HTG 99.6% CONDNS DB HVAC Sizing Pass 1,  41.78, -87.75,  -6.00, 186.00
4,1, 1
49,0.0000000000000000,0.0000000000000000,21, 1,15,0.0000000000000000,21, 1,15
86,1.2191790575342472,1.2699781849315066E-002,21, 1,15,1.2699781849315066E-002,21, 1,15
203,0.19350139727546783,2.0156395549527908E-003,21, 1,15,2.0156395549527908E-003,21, 1,15
581,66.324794572506534,0.50931463069634053,21, 1,15,0.77670071351436054,21,24,60
722,0.0000000000000000,0.0000000000000000,21, 1,15,0.0000000000000000,21, 1,15
760,64.657613914096771,0.49184920709207258,21, 1,15,0.75923528991009248,21,24,60
1,CHICAGO MIDWAY AP ANN HTG 99% CONDNS DB HVAC Sizing Pass 1,  41.78, -87.75,  -6.00, 186.00
4,1, 1
49,0.0000000000000000,0.0000000000000000,21, 1,15,0.0000000000000000,21, 1,15
86,1.2191790575342472,1.2699781849315066E-002,21, 1,15,1.2699781849315066E-002,21, 1,15
203,0.19350139727546783,2.0156395549527908E-003,21, 1,15,2.0156395549527908E-003,21, 1,15
581,59.577550154102234,0.44207194286857776,21, 1,15,0.70408553960892062,21,24,60
722,0.0000000000000000,0.0000000000000000,21, 1,15,0.0000000000000000,21, 1,15
760,57.910369495692485,0.42460651926430992,21, 1,15,0.68662011600465278,21,24,60
1,CHICAGO MIDWAY AP ANN CLG .4% CONDNS DB=>MWB HVAC Sizing Pass 1,  41.78, -87.75,  -6.00, 186.00
4,1, 7
49,0.0000000000000000,0.0000000000000000,21, 1,15,0.0000000000000000,21, 1,15
86,19.709474472248356,0.20530702575258691,21, 1,15,0.20530702575258691,21, 1,15
203,0.18809118750488457,1.9592832031758828E-003,21, 1,15,1.9592832031758828E-003,21, 1,15
581,5.4805295618276944,-0.28874270150317050,21,12,60,0.21001631115576283,21, 1,15
722,0.0000000000000000,0.0000000000000000,21, 1,15,0.0000000000000000,21, 1,15
760,0.0000000000000000,0.0000000000000000,21, 1,15,0.0000000000000000,21, 1,15
1,CHICAGO MIDWAY AP ANN CLG 1% CONDNS DB=>MWB HVAC Sizing Pass 1,  41.78, -87.75,  -6.00, 186.00
4,1, 7
49,0.0000000000000000,0.0000000000000000,21, 1,15,0.0000000000000000,21, 1,15
86,19.709474472248356,0.20530702575258691,21, 1,15,0.20530702575258691,21, 1,15
203,0.18809118750488457,1.9592832031758828E-003,21, 1,15,1.9592832031758828E-003,21, 1,15
581,5.3731974872176611,-0.29247005073191928,21,12,60,0.21001631115576283,21, 1,15
722,0.0000000000000000,0.0000000000000000,21, 1,15,0.0000000000000000,21, 1,15
760,0.0000000000000000,0.0000000000000000,21, 1,15,0.0000000000000000,21, 1,15
1,CHICAGO MIDWAY AP ANN HTG 99.6% CONDNS DB,  41.78, -87.75,  -6.00, 186.00
4,1, 1
49,0.0000000000000000,0.0000000000000000,21, 1,15,0.0000000000000000,21, 1,15
86,1.2191790575342472,1.2699781849315066E-002,21, 1,15,1.2699781849315066E-002,21, 1,15
203,0.19350139727546783,2.0156395549527908E-003,21, 1,15,2.0156395549527908E-003,21, 1,15
581,66.385019357824959,0.50992014571630673,21, 1,15,0.77735085135713211,21,24,60
722,0.0000000000000000,0.0000000000000000,21, 1,15,0.0000000000000000,21, 1,15
760,64.717838699415296,0.49245472211203872,21, 1,15,0.75988542775286427,21,24,60
1,CHICAGO MIDWAY AP ANN HTG 99% CONDNS DB,  41.78, -87.75,  -6.00, 186.00
4,1, 1
49,0.0000000000000000,0.0000000000000000,21, 1,15,0.0000000000000000,21, 1,15
86,1.2191790575342472,1.2699781849315066E-002,21, 1,15,1.2699781849315066E-002,21, 1,15
203,0.19350139727546783,2.0156395549527908E-003,21, 1,15,2.0156395549527908E-003,21, 1,15
581,59.577487794063664,0.44207133814492167,21, 1,15,0.70408485479633365,21,24,60
722,0.0000000000000000,0.0000000000000000,21, 1,15,0.0000000000000000,21, 1,15
760,57.910307135653952,0.42460591454065372,21, 1,15,0.68661943119206559,21,24,60
1,CHICAGO MIDWAY AP ANN CLG .4% CONDNS DB=>MWB,  41.78, -87.75,  -6.00, 186.00
4,1, 7
49,0.0000000000000000,0.0000000000000000,21, 1,15,0.0000000000000000,21, 1,15
86,19.709474472248356,0.20530702575258691,21, 1,15,0.20530702575258691,21, 1,15
203,0.18809118750488457,1.9592832031758828E-003,21, 1,15,1.9592832031758828E-003,21, 1,15
581,5.4805295618276944,-0.28874270150317050,21,12,60,0.21001631115576283,21, 1,15
722,0.0000000000000000,0.0000000000000000,21, 1,15,0.0000000000000000,21, 1,15
760,0.0000000000000000,0.0000000000000000,21, 1,15,0.0000000000000000,21, 1,15
1,CHICAGO MIDWAY AP ANN CLG 1% CONDNS DB=>MWB,  41.78, -87.75,  -6.00, 186.00
4,1, 7
49,0.0000000000000000,0.0000000000000000,21, 1,15,0.0000000000000000,21, 1,15
86,19.709474472248356,0.20530702575258691,21, 1,15,0.20530702575258691,21, 1,15
203,0.18809118750488457,1.9592832031758828E-003,21, 1,15,1.9592832031758828E-003,21, 1,15
581,5.3731974872176611,-0.29247005073191928,21,12,60,0.21001631115576283,21, 1,15
722,0.0000000000000000,0.0000000000000000,21, 1,15,0.0000000000000000,21, 1,15
760,0.0000000000000000,0.0000000000000000,21, 1,15,0.0000000000000000,21, 1,15
1,ANNUAL,  41.78, -87.75,  -6.00, 186.00
4,31, 1
49,0.0000000000000000,0.0000000000000000, 1, 1,15,0.0000000000000000, 1, 1,15
86,37.794550783563814,1.2699781849315066E-002, 1, 1,15,1.2699781849315066E-002, 1, 1,15
203,5.9416436505840808,1.9592832031758828E-003,27, 1,15,2.0156395549527908E-003, 1, 5,15
581,604.51069650524448,-0.69154386721057648,30,12,60,0.69743891210934728,19, 8,15
722,0.0000000000000000,0.0000000000000000, 1, 1,15,0.0000000000000000, 1, 1,15
760,806.38678868809836,0.0000000000000000, 1, 1,15,0.67997348850507933,19, 8,15
4,59, 2
49,0.0000000000000000,0.0000000000000000, 1, 1,15,0.0000000000000000, 1, 1,15
86,34.137013610960587,1.2699781849315066E-002, 1, 1,15,1.2699781849315066E-002, 1, 1,15
203,5.3446855680751399,1.9592832031758828E-003, 1, 1,15,2.0156395549527912E-003, 3, 1,15
581,603.56849637942992,-0.71039532051479715, 2,12,60,1.6928206454782679, 3, 1,15
722,0.0000000000000000,0.0000000000000000, 1, 1,15,0.0000000000000000, 1, 1,15
760,821.47891567332351,0.0000000000000000, 1, 1,15,1.6753552218739991, 3, 1,15
4,90, 3
49,0.0000000000000000,0.0000000000000000, 1, 1,15,0.0000000000000000, 1, 1,15
86,37.794550783563814,1.2699781849315066E-002, 1, 1,15,1.2699781849315066E-002, 1, 1,15
203,5.8740589899938405,1.9592832031758828E-003, 1,14,15,2.0156395549527908E-003, 1, 1,15
581,136.89618192129373,-0.69587567079042700, 8,12,45,0.63507844955893600, 2, 7,30
722,0.0000000000000000,0.0000000000000000, 1, 1,15,0.0000000000000000, 1, 1,15
760,381.37572483308475,0.0000000000000000, 1,14,15,0.61761302595466805, 2, 7,30
4,120, 4
49,0.0000000000000000,0.0000000000000000, 1, 1,15,0.0000000000000000, 1, 1,15
86,36.575371726029410,1.2699781849315066E-002, 1, 1,15,1.2699781849315066E-002, 1, 1,15
203,5.6470911865722302,1.9592832031758828E-003, 1,14,45,1.9669649693590573E-003, 1, 1,15
581,-217.69843250614576,-0.62848598301079917,10,12,60,0.21679213704879391,19, 6,30
722,0.69153275129900538,0.0000000000000000, 1, 1,15,5.0131139790461285E-002,30,17,45
760,27.254250085892139,0.0000000000000000, 1,14,45,0.19962538823011977,19, 6,30
4,151, 5
49,0.0000000000000000,0.0000000000000000, 1, 1,15,0.0000000000000000, 1, 1,15
86,37.794550783563814,1.2699781849315066E-002, 1, 1,15,1.2699781849315066E-002, 1, 1,15
203,5.8361192068149554,1.9592832031758828E-003, 1, 1,15,1.9708328407719152E-003,27,17,15
581,-260.60154552321660,-0.58024190359819650, 2,12,45,0.11142057129993652,27,19,30
722,40.765534114479756,0.0000000000000000, 1, 1,15,0.15080889209700088,27,17,15
760,0.0000000000000000,0.0000000000000000, 1, 1,15,0.0000000000000000, 1, 1,15
4,181, 6
49,0.0000000000000000,0.0000000000000000, 1, 1,15,0.0000000000000000, 1, 1,15
86,36.575371726029410,1.2699781849315066E-002, 1, 1,15,1.2699781849315066E-002, 1, 1,15
203,5.6721304518160212,1.9592832031758828E-003, 1, 1,15,2.0156395549527908E-003,14,15,60
581,-38.411193111795072,-0.40117221159499256, 8,12,30,0.22333462249456182,13,18,45
722,245.48410230983563,0.0000000000000000, 1, 1,15,0.27459575711955009,14,15,60
760,0.0000000000000000,0.0000000000000000, 1, 1,15,0.0000000000000000, 1, 1,15
4,212, 7
49,0.0000000000000000,0.0000000000000000, 1, 1,15,0.0000000000000000, 1, 1,15
86,37.794550783563814,1.2699781849315066E-002, 1, 1,15,1.2699781849315066E-002, 1, 1,15
203,5.8685085141472957,1.9592832031758824E-003,26,21,60,2.0156395549527908E-003,16,16,15
581,-14.380115447998710,-0.46956739071814491,24,12,60,0.22475632531051992,19,18,45
722,302.56024060039334,0.0000000000000000,20, 1,15,0.27488130363804641,17,16,15
760,0.0000000000000000,0.0000000000000000, 1, 1,15,0.0000000000000000, 1, 1,15
4,243, 8
49,0.0000000000000000,0.0000000000000000, 1, 1,15,0.0000000000000000, 1, 1,15
86,37.794550783563814,1.2699781849315066E-002, 1, 1,15,1.2699781849315066E-002, 1, 1,15
203,5.8813301770420656,1.9592832031758828E-003,20, 5,60,2.0156395549527908E-003, 1,12,60
581,65.472196742513219,-0.33959648865991504, 7,12,45,0.27240208393634391, 1,19,30
722,383.81454714592832,0.0000000000000000,20, 5,60,0.27580322247383865, 1,16,60
760,0.0000000000000000,0.0000000000000000, 1, 1,15,0.0000000000000000, 1, 1,15
4,273, 9
49,0.0000000000000000,0.0000000000000000, 1, 1,15,0.0000000000000000, 1, 1,15
86,36.575371726029410,1.2699781849315066E-002, 1, 1,15,1.2699781849315066E-002, 1, 1,15
203,5.6843700677377713,1.9592832031758828E-003, 9, 4,45,2.0156395549527908E-003, 3,16,15
581,-22.578201848855475,-0.40879970995587400,23,12,45,0.28370416698522988, 6,19,15
722,295.99341937822044,0.0000000000000000, 9, 4,45,0.27641858037531647, 6,15,60
760,0.0000000000000000,0.0000000000000000, 1, 1,15,0.0000000000000000, 1, 1,15
4,304,10
49,0.0000000000000000,0.0000000000000000, 1, 1,15,0.0000000000000000, 1, 1,15
86,37.794550783563814,1.2699781849315066E-002, 1, 1,15,1.2699781849315066E-002, 1, 1,15
203,5.8429264092663775,1.9592832031758828E-003, 1, 1,15,2.0156395549527908E-003, 3,15,60
581,-161.93008214408786,-0.58246983611484882, 9,13,15,0.22487890818314740, 4,18,15
722,93.215604801226206,0.0000000000000000, 1, 1,15,0.26391959814364180, 4,14,30
760,0.0000000000000000,0.0000000000000000, 1, 1,15,0.0000000000000000, 1, 1,15
4,334,11
49,0.0000000000000000,0.0000000000000000, 1, 1,15,0.0000000000000000, 1, 1,15
86,36.575371726029410,1.2699781849315066E-002, 1, 1,15,1.2699781849315066E-002, 1, 1,15
203,5.6505299770203097,1.9592832031758828E-003, 1, 1,15,2.0156395549527908E-003,25, 6,30
581,-254.16616908549187,-0.57138556580817712,21,12,45,0.32204892785400741,30, 7,60
722,4.8415535011524087,0.0000000000000000, 1, 1,15,0.13204738470070276,10,14,30
760,26.887721442519894,0.0000000000000000, 1, 1,15,0.30479094483219682,30, 8,15
4,365,12
49,0.0000000000000000,0.0000000000000000, 1, 1,15,0.0000000000000000, 1, 1,15
86,37.794550783563814,1.2699781849315066E-002, 1, 1,15,1.2699781849315066E-002, 1, 1,15
203,5.9190484359779454,1.9592832031758828E-003, 1,10,30,2.0156395549527908E-003, 1, 1,15
581,379.70877838409257,-0.61075280555446221, 1,12,30,0.72316003458249123,24, 8,15
722,0.0000000000000000,0.0000000000000000, 1, 1,15,0.0000000000000000, 1, 1,15
760,615.33375649204606,0.0000000000000000, 1,10,30,0.70569461097822317,24, 8,15
End of Data
 Number of Records Written=         120
