Program Version,EnergyPlus, Version 9.5.0-de239b2e5f, YMD=2023.03.21 01:08
1,5,Environment Title[],Latitude[deg],Longitude[deg],Time Zone[],Elevation[m]
2,8,Day of Simulation[],Month[],Day of Month[],DST Indicator[1=yes 0=no],Hour[],StartMinute[],EndMinute[],DayType
3,5,Cumulative Day of Simulation[],Month[],Day of Month[],DST Indicator[1=yes 0=no],DayType  ! When Daily Meters Requested
4,2,Cumulative Days of Simulation[],Month[]  ! When Monthly Meters Requested
5,1,Cumulative Days of Simulation[] ! When Run Period Meters Requested
6,1,Calendar Year of Simulation[] ! When Annual Meters Requested
48,9,InteriorLights:Electricity [kWh] !Monthly [Value,Min,Day,Hour,Minute,Max,Day,Hour,Minute]
85,9,InteriorEquipment:Electricity [kWh] !Monthly [Value,Min,Day,Hour,Minute,Max,Day,Hour,Minute]
130,9,Fans:Electricity [kWh] !Monthly [Value,Min,Day,Hour,Minute,Max,Day,Hour,Minute]
643,9,Heating:Electricity [kWh] !Monthly [Value,Min,Day,Hour,Minute,Max,Day,Hour,Minute]
605,9,Cooling:Electricity [kWh] !Monthly [Value,Min,Day,Hour,Minute,Max,Day,Hour,Minute]
466,9,ElectricityNet:Facility [kWh] !Monthly [Value,Min,Day,Hour,Minute,Max,Day,Hour,Minute]
End of Data Dictionary
1,CHICAGO MIDWAY AP ANN HTG 99.6% CONDNS DB HVAC Sizing Pass 1,  41.98, -87.92,  -6.00, 201.00
4,1, 1
48,0.0000000000000000,0.0000000000000000,21, 1,15,0.0000000000000000,21, 1,15
85,1.2191790575342472,1.2699781849315066E-002,21, 1,15,1.2699781849315066E-002,21, 1,15
130,0.94744698891819301,9.8692394678978352E-003,21, 1,15,9.8692394678978352E-003,21, 1,15
466,272.10910325300296,2.6487951259204219,21, 1,15,2.8873948730542258,21,24,60
605,0.0000000000000000,0.0000000000000000,21, 1,15,0.0000000000000000,21, 1,15
643,269.68797700295045,2.6234761024032092,21, 1,15,2.8620758495370131,21,24,60
1,CHICAGO MIDWAY AP ANN HTG 99% CONDNS DB HVAC Sizing Pass 1,  41.98, -87.92,  -6.00, 201.00
4,1, 1
48,0.0000000000000000,0.0000000000000000,21, 1,15,0.0000000000000000,21, 1,15
85,1.2191790575342472,1.2699781849315066E-002,21, 1,15,1.2699781849315066E-002,21, 1,15
130,0.94744698891819301,9.8692394678978352E-003,21, 1,15,9.8692394678978352E-003,21, 1,15
466,246.93352321405308,2.2798770518410088,21, 1,15,2.7003569012744340,21,24,60
605,0.0000000000000000,0.0000000000000000,21, 1,15,0.0000000000000000,21, 1,15
643,244.51239696400074,2.2545580283237960,21, 1,15,2.6750378777572217,21,24,60
1,CHICAGO MIDWAY AP ANN CLG .4% CONDNS DB=>MWB HVAC Sizing Pass 1,  41.98, -87.92,  -6.00, 201.00
4,1, 7
48,0.0000000000000000,0.0000000000000000,21, 1,15,0.0000000000000000,21, 1,15
85,20.097972999597296,0.20935388541247202,21, 1,15,0.20935388541247202,21, 1,15
130,0.93833729359736884,9.7714283894400934E-003,21, 1,15,9.7870456180796980E-003,21,17,45
466,26.377316640507587,2.6787664396486378E-002,21,12,45,0.52500369953254744,21,18,45
605,19.794301000718466,4.7809884799532645E-002,21, 5,30,0.36148211268945096,21,17,30
643,0.0000000000000000,0.0000000000000000,21, 1,15,0.0000000000000000,21, 1,15
1,CHICAGO MIDWAY AP ANN CLG 1% CONDNS DB=>MWB HVAC Sizing Pass 1,  41.98, -87.92,  -6.00, 201.00
4,1, 7
48,0.0000000000000000,0.0000000000000000,21, 1,15,0.0000000000000000,21, 1,15
85,20.097972999597296,0.20935388541247202,21, 1,15,0.20935388541247202,21, 1,15
130,0.93813188328361097,9.7714283894400934E-003,21, 1,15,9.7778685522332421E-003,21,17,45
466,22.764951577542146,-1.8386860481549278E-002,21,12,45,0.48331141149579121,21,18,45
605,16.289753125022273,1.0668833800035402E-002,21, 5,30,0.31792435183525874,21,17,45
643,0.0000000000000000,0.0000000000000000,21, 1,15,0.0000000000000000,21, 1,15
1,ANNUAL,  41.98, -87.92,  -6.00, 201.00
4,31, 1
48,384.14505370602149,2.4783551852001488E-002, 1, 1,15,0.39653682963202380, 1,21,15
85,362.60061961916381,2.9496467721703480E-002, 1, 4,15,0.28388444009900143, 1,20,15
130,29.313040829965843,9.7559919594084575E-003,10,15,15,9.8692394678978352E-003, 1, 1,15
466,4339.2431012425996,-0.41667252873615701,17,12,60,3.4848557382215306,26,21,60
605,0.0000000000000000,0.0000000000000000, 1, 1,15,0.0000000000000000, 1, 1,15
643,3826.1380651571967,0.0000000000000000,16,15,60,2.8889917067555624, 7, 4,30
4,59, 2
48,346.96972592802121,2.4783551852001488E-002, 1, 1,15,0.39653682963202380, 1,21,15
85,327.51023707537155,2.9496467721703480E-002, 1, 4,15,0.28388444009900143, 1,20,15
130,26.450945693305716,9.7559919594084575E-003, 9,14,60,9.8692394678978352E-003, 1, 1,15
466,3292.5821047462837,-0.42616331175896904,11,13,45,3.2382832891584958, 6,21,60
605,0.0000000000000000,0.0000000000000000, 1, 1,15,0.0000000000000000, 1, 1,15
643,2872.1187781809281,0.0000000000000000,11,13,45,2.8889917067555624, 6, 3,45
4,90, 3
48,384.14505370602149,2.4783551852001488E-002, 1, 1,15,0.39653682963202380, 1,21,15
85,362.60061961916381,2.9496467721703480E-002, 1, 4,15,0.28388444009900143, 1,20,15
130,29.172326694906619,9.7559919594084575E-003, 2,13,30,9.8692394678978352E-003, 1, 1,15
466,1893.7768376071103,-0.48705297807326847, 8,13,60,2.1461917823401917, 4,23,60
605,0.54089178167341645,0.0000000000000000, 1, 1,15,6.6261943813431617E-002,19,17,15
643,1447.5932110814954,0.0000000000000000, 8,13,60,1.9808605856478427, 5, 1,60
4,120, 4
48,371.75327778002139,2.4783551852001488E-002, 1, 1,15,0.39653682963202380, 1,21,15
85,350.90382543789974,2.9496467721703480E-002, 1, 4,15,0.28388444009900143, 1,20,15
130,28.164009418476549,9.7559919594084558E-003,24,18,60,9.8692394678978352E-003, 1, 1,15
466,1153.3959404400923,-0.48178048490514547,25,12,30,1.6907936921478051, 5, 6,15
605,95.182639126490272,0.0000000000000000, 1, 1,15,0.50126702327443895,18,15,30
643,625.24553508622046,0.0000000000000000, 8,19,15,1.4921285790269216, 5, 4,60
4,151, 5
48,384.14505370602149,2.4783551852001488E-002, 1, 1,15,0.39653682963202380, 1,21,15
85,362.60061961916381,2.9496467721703480E-002, 1, 4,15,0.28388444009900143, 1,20,15
130,29.059875157456844,9.7559919594084575E-003, 1, 7,45,9.8256060915264676E-003,30,18,15
466,651.95996261206699,-0.40005949034289540,15,13,30,0.97803036522884645,30,20,15
605,186.71068417220457,0.0000000000000000, 1, 1,15,0.44003963562521387,30,18,15
643,61.932888576419742,0.0000000000000000, 1, 7,45,0.50373350847563192, 9, 5,30
4,181, 6
48,371.75327778002139,2.4783551852001488E-002, 1, 1,15,0.39653682963202380, 1,21,15
85,350.90382543789974,2.9496467721703480E-002, 1, 4,15,0.28388444009900143, 1,20,15
130,28.156804196612118,9.7559919594084558E-003,30, 7,30,9.8692394678978352E-003, 6,18,15
466,880.56509862508608,-0.36264351078577584,23,13,15,1.0751864853689479,15,20,15
605,474.13549352869398,0.0000000000000000, 1, 1,15,0.53606463474121113, 8,13,60
643,1.5548351430716212,0.0000000000000000, 1, 1,15,5.3643526548592967E-002,25, 5,15
4,212, 7
48,384.14505370602149,2.4783551852001488E-002, 1, 1,15,0.39653682963202380, 1,21,15
85,362.60061961916381,2.9496467721703480E-002, 1, 4,15,0.28388444009900143, 1,20,15
130,29.117987333813691,9.7559919594084575E-003, 1, 1,15,9.8692394678978352E-003, 4,15,45
466,1045.9201963718147,-0.17980846519402696,29,13,15,1.2125010984407911,16,20,30
605,632.72343124506972,0.0000000000000000, 1, 1,15,0.55478482164049392,19,16,15
643,0.0000000000000000,0.0000000000000000, 1, 1,15,0.0000000000000000, 1, 1,15
4,243, 8
48,384.14505370602149,2.4783551852001488E-002, 1, 1,15,0.39653682963202380, 1,21,15
85,362.60061961916381,2.9496467721703480E-002, 1, 4,15,0.28388444009900143, 1,20,15
130,29.101831862444321,9.7559919594084575E-003, 1, 1,60,9.8692394678978352E-003, 2,17,15
466,979.70393534239849,-0.15682294198906832, 7,14,30,1.2049843663788875, 3,20,15
605,547.27562961824754,0.0000000000000000, 1, 1,60,0.53453412227380670, 3,16,15
643,0.0000000000000000,0.0000000000000000, 1, 1,15,0.0000000000000000, 1, 1,15
4,273, 9
48,371.75327778002139,2.4783551852001488E-002, 1, 1,15,0.39653682963202380, 1,21,15
85,350.90382543789974,2.9496467721703480E-002, 1, 4,15,0.28388444009900143, 1,20,15
130,28.134005649718379,9.7559919594084575E-003, 1, 1,15,9.8692394678978352E-003, 5,15,45
466,730.58060790165371,-0.36155365091547420,30,11,45,0.94440151114225634, 6,20,15
605,309.19650454451704,0.0000000000000000, 1, 1,15,0.49545241013897662,27,15,60
643,5.4876781951329905,0.0000000000000000, 1, 1,15,6.9107515494939736E-002,25, 4,60
4,304,10
48,384.14505370602149,2.4783551852001488E-002, 1, 1,15,0.39653682963202380, 1,21,15
85,362.60061961916381,2.9496467721703480E-002, 1, 4,15,0.28388444009900143, 1,20,15
130,29.056965699068783,9.7559919594084575E-003, 1, 1,15,9.8692394678978352E-003, 8, 6,60
466,720.71595987747662,-0.47871798079500527,24,13,30,1.1111068158146677, 8, 6,60
605,36.423349888270380,0.0000000000000000, 1, 1,15,0.23936730585542842, 2,15,15
643,230.57016695724525,0.0000000000000000, 1, 1,15,0.97266585365815905,17, 3,60
4,334,11
48,371.75327778002139,2.4783551852001488E-002, 1, 1,15,0.39653682963202380, 1,21,15
85,350.90382543789974,2.9496467721703480E-002, 1, 4,15,0.28388444009900143, 1,20,15
130,28.222840069154223,9.7559919594084575E-003, 1, 5,15,9.8692394678978352E-003,11, 7,30
466,2030.4958112490799,-0.41762673771380160, 4,12,30,2.8893418660621371,26, 7,45
605,3.7131038146600428,0.0000000000000000, 1, 1,15,0.12254596524073064, 2,13,60
643,1499.1772578492114,0.0000000000000000, 1, 5,15,2.6662671849186710,26, 4,60
4,365,12
48,384.14505370602149,2.4783551852001488E-002, 1, 1,15,0.39653682963202380, 1,21,15
85,362.60061961916381,2.9496467721703480E-002, 1, 4,15,0.28388444009900143, 1,20,15
130,29.319120739688906,9.7559919594084575E-003, 5,14,15,9.8692394678978352E-003, 2, 1,15
466,4080.7526226743103,-0.37475615929805217, 5,14,15,3.1153964191251862,20, 7,60
605,0.0000000000000000,0.0000000000000000, 1, 1,15,0.0000000000000000, 1, 1,15
643,3541.4022136556305,0.0000000000000000, 7,15,30,2.8164823166135715,30, 3,15
End of Data
 Number of Records Written=          96
