Program Version,EnergyPlus, Version 9.5.0-de239b2e5f, YMD=2023.03.21 01:12
1,5,Environment Title[],Latitude[deg],Longitude[deg],Time Zone[],Elevation[m]
2,8,Day of Simulation[],Month[],Day of Month[],DST Indicator[1=yes 0=no],Hour[],StartMinute[],EndMinute[],DayType
3,5,Cumulative Day of Simulation[],Month[],Day of Month[],DST Indicator[1=yes 0=no],DayType  ! When Daily Meters Requested
4,2,Cumulative Days of Simulation[],Month[]  ! When Monthly Meters Requested
5,1,Cumulative Days of Simulation[] ! When Run Period Meters Requested
6,1,Calendar Year of Simulation[] ! When Annual Meters Requested
48,9,InteriorLights:Electricity [kWh] !Monthly [Value,Min,Day,Hour,Minute,Max,Day,Hour,Minute]
85,9,InteriorEquipment:Electricity [kWh] !Monthly [Value,Min,Day,Hour,Minute,Max,Day,Hour,Minute]
130,9,Fans:Electricity [kWh] !Monthly [Value,Min,Day,Hour,Minute,Max,Day,Hour,Minute]
643,9,Heating:Electricity [kWh] !Monthly [Value,Min,Day,Hour,Minute,Max,Day,Hour,Minute]
605,9,Cooling:Electricity [kWh] !Monthly [Value,Min,Day,Hour,Minute,Max,Day,Hour,Minute]
466,9,ElectricityNet:Facility [kWh] !Monthly [Value,Min,Day,Hour,Minute,Max,Day,Hour,Minute]
End of Data Dictionary
1,CHICAGO MIDWAY AP ANN HTG 99.6% CONDNS DB HVAC Sizing Pass 1,  41.98, -87.92,  -6.00, 201.00
4,1, 1
48,0.0000000000000000,0.0000000000000000,21, 1,15,0.0000000000000000,21, 1,15
85,1.2191790575342472,1.2699781849315066E-002,21, 1,15,1.2699781849315066E-002,21, 1,15
130,0.95334389056320501,9.9306655267000707E-003,21, 1,15,9.9306655267000707E-003,21, 1,15
466,290.36079149341504,2.7251944243101276,21, 1,15,3.1568341964318742,21,24,60
605,0.0000000000000000,0.0000000000000000,21, 1,15,0.0000000000000000,21, 1,15
643,287.93376834171778,2.6998139747341128,21, 1,15,3.1314537468558590,21,24,60
1,CHICAGO MIDWAY AP ANN HTG 99% CONDNS DB HVAC Sizing Pass 1,  41.98, -87.92,  -6.00, 201.00
4,1, 1
48,0.0000000000000000,0.0000000000000000,21, 1,15,0.0000000000000000,21, 1,15
85,1.2191790575342472,1.2699781849315066E-002,21, 1,15,1.2699781849315066E-002,21, 1,15
130,0.95334389056320501,9.9306655267000707E-003,21, 1,15,9.9306655267000707E-003,21, 1,15
466,254.37668007803609,2.3559385192920597,21, 1,15,2.7784031645228757,21,24,60
605,0.0000000000000000,0.0000000000000000,21, 1,15,0.0000000000000000,21, 1,15
643,251.94965692633866,2.3305580697160453,21, 1,15,2.7530227149468609,21,24,60
1,CHICAGO MIDWAY AP ANN CLG .4% CONDNS DB=>MWB HVAC Sizing Pass 1,  41.98, -87.92,  -6.00, 201.00
4,1, 7
48,0.0000000000000000,0.0000000000000000,21, 1,15,0.0000000000000000,21, 1,15
85,20.097972999597296,0.20935388541247202,21, 1,15,0.20935388541247202,21, 1,15
130,0.93886091445729392,9.7798011922634667E-003,21, 1,15,9.7798011922634667E-003,21, 1,15
466,24.031164156111760,6.5952657898253036E-003,21,12,45,0.50837616790156281,21,18,45
605,17.447624895462734,1.4416183104892365E-002,21, 5,30,0.34567222945433651,21,17,30
643,0.0000000000000000,0.0000000000000000,21, 1,15,0.0000000000000000,21, 1,15
1,CHICAGO MIDWAY AP ANN CLG 1% CONDNS DB=>MWB HVAC Sizing Pass 1,  41.98, -87.92,  -6.00, 201.00
4,1, 7
48,0.0000000000000000,0.0000000000000000,21, 1,15,0.0000000000000000,21, 1,15
85,20.097972999597296,0.20935388541247202,21, 1,15,0.20935388541247202,21, 1,15
130,0.93852758519732360,9.7559919594084575E-003,21, 3,30,9.7798011922634667E-003,21, 1,15
466,20.398681221603194,-4.0850361477891187E-002,21,12,45,0.46426342060406123,21,18,45
605,13.923087067169602,0.0000000000000000,21, 3,30,0.29948937291467476,21,17,45
643,0.0000000000000000,0.0000000000000000,21, 1,15,0.0000000000000000,21, 1,15
1,CHICAGO MIDWAY AP ANN HTG 99.6% CONDNS DB,  41.98, -87.92,  -6.00, 201.00
4,1, 1
48,0.0000000000000000,0.0000000000000000,21, 1,15,0.0000000000000000,21, 1,15
85,1.2191790575342472,1.2699781849315066E-002,21, 1,15,1.2699781849315066E-002,21, 1,15
130,0.95334389056320501,9.9306655267000707E-003,21, 1,15,9.9306655267000707E-003,21, 1,15
466,290.40966155139375,2.7257648175235962,21, 1,15,3.1573031701117649,21,24,60
605,0.0000000000000000,0.0000000000000000,21, 1,15,0.0000000000000000,21, 1,15
643,287.98263839969650,2.7003843679475814,21, 1,15,3.1319227205357496,21,24,60
1,CHICAGO MIDWAY AP ANN HTG 99% CONDNS DB,  41.98, -87.92,  -6.00, 201.00
4,1, 1
48,0.0000000000000000,0.0000000000000000,21, 1,15,0.0000000000000000,21, 1,15
85,1.2191790575342472,1.2699781849315066E-002,21, 1,15,1.2699781849315066E-002,21, 1,15
130,0.95334389056320501,9.9306655267000707E-003,21, 1,15,9.9306655267000707E-003,21, 1,15
466,254.37665107727943,2.3559381805913593,21, 1,15,2.7784028860662655,21,24,60
605,0.0000000000000000,0.0000000000000000,21, 1,15,0.0000000000000000,21, 1,15
643,251.94962792558212,2.3305577310153449,21, 1,15,2.7530224364902502,21,24,60
1,CHICAGO MIDWAY AP ANN CLG .4% CONDNS DB=>MWB,  41.98, -87.92,  -6.00, 201.00
4,1, 7
48,0.0000000000000000,0.0000000000000000,21, 1,15,0.0000000000000000,21, 1,15
85,20.097972999597296,0.20935388541247202,21, 1,15,0.20935388541247202,21, 1,15
130,0.93886091445729392,9.7798011922634667E-003,21, 1,15,9.7798011922634667E-003,21, 1,15
466,24.031164150891890,6.5952657302103795E-003,21,12,45,0.50837616785660600,21,18,45
605,17.447624890242849,1.4416183039454787E-002,21, 5,30,0.34567222939790671,21,17,30
643,0.0000000000000000,0.0000000000000000,21, 1,15,0.0000000000000000,21, 1,15
1,CHICAGO MIDWAY AP ANN CLG 1% CONDNS DB=>MWB,  41.98, -87.92,  -6.00, 201.00
4,1, 7
48,0.0000000000000000,0.0000000000000000,21, 1,15,0.0000000000000000,21, 1,15
85,20.097972999597296,0.20935388541247202,21, 1,15,0.20935388541247202,21, 1,15
130,0.93852758519732360,9.7559919594084575E-003,21, 3,30,9.7798011922634667E-003,21, 1,15
466,20.398681221618538,-4.0850361477697578E-002,21,12,45,0.46426342060421966,21,18,45
605,13.923087067184955,0.0000000000000000,21, 3,30,0.29948937291483863,21,17,45
643,0.0000000000000000,0.0000000000000000,21, 1,15,0.0000000000000000,21, 1,15
1,ANNUAL,  41.98, -87.92,  -6.00, 201.00
4,31, 1
48,384.14505370602149,2.4783551852001488E-002, 1, 1,15,0.39653682963202380, 1,21,15
85,362.60061961916381,2.9496467721703480E-002, 1, 4,15,0.28388444009900143, 1,20,15
130,29.439758966469441,9.7559919594084575E-003,16,15,15,9.9306655267000707E-003, 1, 1,15
466,4589.7624440595328,-0.41667252873615701,17,12,60,3.8442882075861893,27, 8,15
605,0.0000000000000000,0.0000000000000000, 1, 1,15,0.0000000000000000, 1, 1,15
643,4076.5306898376330,0.0000000000000000,17,12,60,3.6073845569119261,27, 2,30
4,59, 2
48,346.96972592802121,2.4783551852001488E-002, 1, 1,15,0.39653682963202380, 1,21,15
85,327.51023707537155,2.9496467721703480E-002, 1, 4,15,0.28388444009900143, 1,20,15
130,26.547127113001295,9.7559919594084575E-003, 9,15,15,9.9306655267000707E-003, 1, 1,15
466,3500.2783419101183,-0.42616331175896904,11,13,45,3.6833341042094734, 6, 6,15
605,0.0000000000000000,0.0000000000000000, 1, 1,15,0.0000000000000000, 1, 1,15
643,3079.7188339250542,0.0000000000000000,11,13,45,3.4863235196408153, 6, 5,60
4,90, 3
48,384.14505370602149,2.4783551852001488E-002, 1, 1,15,0.39653682963202380, 1,21,15
85,362.60061961916381,2.9496467721703480E-002, 1, 4,15,0.28388444009900143, 1,20,15
130,29.199809829761598,9.7559919594084575E-003, 8,11,15,9.9306655267000707E-003, 2, 2,60
466,2077.0891174876924,-0.48705297807326847, 8,13,60,2.2183423991663145, 4,23,60
605,0.16562040402866335,0.0000000000000000, 1, 1,15,4.0928774699337138E-002,19,17,15
643,1631.2532792048705,0.0000000000000000, 8,13,60,2.0551006235323817, 5, 1,60
4,120, 4
48,371.75327778002139,2.4783551852001488E-002, 1, 1,15,0.39653682963202380, 1,21,15
85,350.90382543789974,2.9496467721703480E-002, 1, 4,15,0.28388444009900143, 1,20,15
130,28.177062668512662,9.7559919594084558E-003,24,18,60,9.9306655267000707E-003, 1, 1,15
466,1244.8201190512268,-0.48178048490514547,25,12,30,1.7668648355763892, 5, 6,15
605,84.947641303627449,0.0000000000000000, 1, 1,15,0.50087087030881794,18,15,30
643,726.89165827018405,0.0000000000000000, 9,16,60,1.5686464744922031, 5, 4,60
4,151, 5
48,384.14505370602149,2.4783551852001488E-002, 1, 1,15,0.39653682963202380, 1,21,15
85,362.60061961916381,2.9496467721703480E-002, 1, 4,15,0.28388444009900143, 1,20,15
130,29.069379598681156,9.7559919594084575E-003, 1, 7,60,9.7801440213536803E-003,30,18,15
466,647.76058838910694,-0.40005949034289540,15,13,30,0.96523339176518030,30,19,15
605,160.21879939810671,0.0000000000000000, 1, 1,15,0.43269962326704875,30,18,15
643,84.215894686333939,0.0000000000000000, 1, 7,60,0.61914411814587977, 9, 5,30
4,181, 6
48,371.75327778002139,2.4783551852001488E-002, 1, 1,15,0.39653682963202380, 1,21,15
85,350.90382543789974,2.9496467721703480E-002, 1, 4,15,0.28388444009900143, 1,20,15
130,28.145328946713381,9.7559919594084558E-003,30, 7,30,9.8179842250115702E-003,20,15,30
466,840.25205610001342,-0.36264351078577584,23,13,15,1.0641620785441694,15,20,15
605,433.55085235974946,0.0000000000000000, 1, 1,15,0.61119529432669251,20,15,30
643,1.8379090368413038,0.0000000000000000, 1, 1,15,0.10346023194664035,25, 4,60
4,212, 7
48,384.14505370602149,2.4783551852001488E-002, 1, 1,15,0.39653682963202380, 1,21,15
85,362.60061961916381,2.9496467721703480E-002, 1, 4,15,0.28388444009900143, 1,20,15
130,29.100121952610554,9.7559919594084575E-003, 1, 1,15,9.8647118904983313E-003,19,15,60
466,1007.0660892912387,-0.20606639531918114,29,13,15,1.2291968016841608,16,20,15
605,593.88718954569549,0.0000000000000000, 1, 1,15,0.73941634337208528,19,15,60
643,0.0000000000000000,0.0000000000000000, 1, 1,15,0.0000000000000000, 1, 1,15
4,243, 8
48,384.14505370602149,2.4783551852001488E-002, 1, 1,15,0.39653682963202380, 1,21,15
85,362.60061961916381,2.9496467721703480E-002, 1, 4,15,0.28388444009900143, 1,20,15
130,29.086873503900406,9.7559919594084575E-003, 1, 1,15,9.8327993546861499E-003, 3,17,15
466,934.98682928875928,-0.17718214476716265, 7,14,30,1.1639286091195182, 3,20,15
605,502.57348192315385,0.0000000000000000, 1, 1,15,0.64249782509555498, 3,17,15
643,0.0000000000000000,0.0000000000000000, 1, 1,15,0.0000000000000000, 1, 1,15
4,273, 9
48,371.75327778002139,2.4783551852001488E-002, 1, 1,15,0.39653682963202380, 1,21,15
85,350.90382543789974,2.9496467721703480E-002, 1, 4,15,0.28388444009900143, 1,20,15
130,28.133432028679866,9.7559919594084575E-003, 1, 1,15,9.7964907205492710E-003, 5,17,15
466,694.09528848556408,-0.37543751761072286,25,11,15,0.92569086139946377, 6,20,15
605,271.03850937809676,0.0000000000000000, 1, 1,15,0.49154027308127446,27,15,60
643,7.1609275665020196,0.0000000000000000, 1, 1,15,0.11789787085586885,25, 5,60
4,304,10
48,384.14505370602149,2.4783551852001488E-002, 1, 1,15,0.39653682963202380, 1,21,15
85,362.60061961916381,2.9496467721703480E-002, 1, 4,15,0.28388444009900143, 1,20,15
130,29.065612512029478,9.7559919594084575E-003, 1, 1,15,9.9306655267000707E-003, 8, 6,60
466,774.73419167623535,-0.47871798079500527,24,13,30,1.2141253080132715, 8, 6,60
605,26.305882793955689,0.0000000000000000, 1, 1,15,0.21412298527478740, 2,15,15
643,294.69721903735842,0.0000000000000000, 1, 1,15,1.0700217858231282,17, 3,60
4,334,11
48,371.75327778002139,2.4783551852001488E-002, 1, 1,15,0.39653682963202380, 1,21,15
85,350.90382543789974,2.9496467721703480E-002, 1, 4,15,0.28388444009900143, 1,20,15
130,28.270148372097825,9.7559919594084575E-003, 1, 6,15,9.9306655267000707E-003,11, 7,30
466,2182.5773509793366,-0.41762673771380160, 4,12,30,2.9682116987558662,26, 7,45
605,0.89255436549743916,0.0000000000000000, 1, 1,15,7.5868478642502596E-002, 2,14,15
643,1654.0320387256943,0.0000000000000000, 1, 6,15,2.7462998439925421,26, 4,60
4,365,12
48,384.14505370602149,2.4783551852001488E-002, 1, 1,15,0.39653682963202380, 1,21,15
85,362.60061961916381,2.9496467721703480E-002, 1, 4,15,0.28388444009900143, 1,20,15
130,29.445474302957358,9.7559919594084575E-003, 5,14,45,9.9306655267000707E-003, 2, 7,60
466,4312.9479802656924,-0.34605341761429137, 5,14,30,3.2493750909945192,20, 7,60
605,0.0000000000000000,0.0000000000000000, 1, 1,15,0.0000000000000000, 1, 1,15
643,3773.4712176837479,0.0000000000000000, 7,15,30,3.0416802133504284,30, 2,60
End of Data
 Number of Records Written=         120
