Program Version,EnergyPlus, Version 9.5.0-de239b2e5f, YMD=2024.11.24 14:13
1,5,Environment Title[],Latitude[deg],Longitude[deg],Time Zone[],Elevation[m]
2,8,Day of Simulation[],Month[],Day of Month[],DST Indicator[1=yes 0=no],Hour[],StartMinute[],EndMinute[],DayType
3,5,Cumulative Day of Simulation[],Month[],Day of Month[],DST Indicator[1=yes 0=no],DayType  ! When Daily Meters Requested
4,2,Cumulative Days of Simulation[],Month[]  ! When Monthly Meters Requested
5,1,Cumulative Days of Simulation[] ! When Run Period Meters Requested
6,1,Calendar Year of Simulation[] ! When Annual Meters Requested
353,9,ElectricityNet:Facility [J] !Monthly [Value,Min,Day,Hour,Minute,Max,Day,Hour,Minute]
End of Data Dictionary
1,CHICAGO MIDWAY AP ANN HTG 99.6% CONDNS DB HVAC Sizing Pass 1,  41.78, -87.75,  -6.00, 186.00
4,1, 1
353,52200.0,0.0,21, 8,30,900.0,21, 1,15
1,CHICAGO MIDWAY AP ANN HTG 99% CONDNS DB HVAC Sizing Pass 1,  41.78, -87.75,  -6.00, 186.00
4,1, 1
353,52200.0,0.0,21, 8,30,900.0,21, 1,15
1,CHICAGO MIDWAY AP ANN CLG .4% CONDNS DB=>MWB HVAC Sizing Pass 1,  41.78, -87.75,  -6.00, 186.00
4,1, 7
353,-52869742.97538221,-1797561.8199887756,21,12,60,900.0,21, 1,15
1,CHICAGO MIDWAY AP ANN CLG 1% CONDNS DB=>MWB HVAC Sizing Pass 1,  41.78, -87.75,  -6.00, 186.00
4,1, 7
353,-53256938.74255964,-1811003.8134599175,21,12,60,900.0,21, 1,15
1,CHICAGO MIDWAY AP ANN HTG 99.6% CONDNS DB,  41.78, -87.75,  -6.00, 186.00
4,1, 1
353,52200.0,0.0,21, 8,30,900.0,21, 1,15
1,CHICAGO MIDWAY AP ANN HTG 99% CONDNS DB,  41.78, -87.75,  -6.00, 186.00
4,1, 1
353,52200.0,0.0,21, 8,30,900.0,21, 1,15
1,CHICAGO MIDWAY AP ANN CLG .4% CONDNS DB=>MWB,  41.78, -87.75,  -6.00, 186.00
4,1, 7
353,-52869742.97538221,-1797561.8199887756,21,12,60,900.0,21, 1,15
1,CHICAGO MIDWAY AP ANN CLG 1% CONDNS DB=>MWB,  41.78, -87.75,  -6.00, 186.00
4,1, 7
353,-53256938.74255964,-1811003.8134599175,21,12,60,900.0,21, 1,15
1,ANNUAL,  41.78, -87.75,  -6.00, 186.00
4,31, 1
353,-910987524.4583876,-2551328.522284225,30,12,60,900.0, 1, 1,15
4,59, 2
353,-950802885.2138281,-2668337.972100377, 3,13,30,900.0, 1, 1,15
4,90, 3
353,-1064116519.8012376,-2566923.0026961027, 8,12,45,900.0, 1, 1,15
4,120, 4
353,-1062239212.6660177,-2324320.320771588,10,12,60,900.0, 1, 1,15
4,151, 5
353,-1268774905.0683606,-2150641.773829056, 2,12,45,900.0, 1, 1,15
4,181, 6
353,-1200033132.0676025,-1812216.6874908317,23,12,30,900.0, 1, 1,15
4,212, 7
353,-1324955256.708958,-1786903.776437329,19,12,60,900.0, 1, 1,15
4,243, 8
353,-1330048590.298795,-1938030.5435236227,28,13,30,900.0, 1, 1,15
4,273, 9
353,-1324911867.6815346,-2047686.4540847277,10,12,45,900.0, 1, 1,15
4,304,10
353,-1102402530.402507,-2164495.232000157,15,12,30,900.0, 1, 1,15
4,334,11
353,-1207155899.6472746,-2118758.9832912187,21,12,45,900.0, 1, 1,15
4,365,12
353,-1032402073.8845141,-2340759.7054507487,24,12,45,900.0, 1, 1,15
End of Data
 Number of Records Written=          20
