Program Version,EnergyPlus, Version 9.5.0-de239b2e5f, YMD=2024.11.24 14:44
1,5,Environment Title[],Latitude[deg],Longitude[deg],Time Zone[],Elevation[m]
2,8,Day of Simulation[],Month[],Day of Month[],DST Indicator[1=yes 0=no],Hour[],StartMinute[],EndMinute[],DayType
3,5,Cumulative Day of Simulation[],Month[],Day of Month[],DST Indicator[1=yes 0=no],DayType  ! When Daily Meters Requested
4,2,Cumulative Days of Simulation[],Month[]  ! When Monthly Meters Requested
5,1,Cumulative Days of Simulation[] ! When Run Period Meters Requested
6,1,Calendar Year of Simulation[] ! When Annual Meters Requested
353,9,ElectricityNet:Facility [J] !Monthly [Value,Min,Day,Hour,Minute,Max,Day,Hour,Minute]
End of Data Dictionary
1,ALBUQUERQUE INTL SUNPORT ANN HTG 99.6% CONDNS DB HVAC Sizing Pass 1,  36.12, -86.68,  -6.00, 177.00
4,1,12
353,51300.0,0.0,21, 7,60,900.0,21, 1,15
1,ALBUQUERQUE INTL SUNPORT ANN HTG 99% CONDNS DB HVAC Sizing Pass 1,  36.12, -86.68,  -6.00, 177.00
4,1,12
353,51300.0,0.0,21, 7,60,900.0,21, 1,15
1,ALBUQUERQUE INTL SUNPORT ANN CLG .4% CONDNS DB=>MWB HVAC Sizing Pass 1,  36.12, -86.68,  -6.00, 177.00
4,1, 7
353,-54687034.220889899,-1863489.6092393879,21,12,60,900.0,21, 1,15
1,ALBUQUERQUE INTL SUNPORT ANN CLG 1% CONDNS DB=>MWB HVAC Sizing Pass 1,  36.12, -86.68,  -6.00, 177.00
4,1, 7
353,-55029079.98916132,-1875371.8074774824,21,12,60,900.0,21, 1,15
1,ALBUQUERQUE INTL SUNPORT ANN HTG 99.6% CONDNS DB,  36.12, -86.68,  -6.00, 177.00
4,1,12
353,51300.0,0.0,21, 7,60,900.0,21, 1,15
1,ALBUQUERQUE INTL SUNPORT ANN HTG 99% CONDNS DB,  36.12, -86.68,  -6.00, 177.00
4,1,12
353,51300.0,0.0,21, 7,60,900.0,21, 1,15
1,ALBUQUERQUE INTL SUNPORT ANN CLG .4% CONDNS DB=>MWB,  36.12, -86.68,  -6.00, 177.00
4,1, 7
353,-54687034.220889899,-1863489.6092393879,21,12,60,900.0,21, 1,15
1,ALBUQUERQUE INTL SUNPORT ANN CLG 1% CONDNS DB=>MWB,  36.12, -86.68,  -6.00, 177.00
4,1, 7
353,-55029079.98916132,-1875371.8074774824,21,12,60,900.0,21, 1,15
1,ANNUAL,  36.12, -86.68,  -6.00, 177.00
4,31, 1
353,-954255065.6542311,-2354850.182546384,30,13,15,900.0, 1, 1,15
4,59, 2
353,-1152604313.5745805,-2713809.4783397035,13,12,60,900.0, 1, 1,15
4,90, 3
353,-1343363783.6931046,-2479506.906887929, 6,12,30,900.0, 1, 1,15
4,120, 4
353,-1349804775.7424913,-2369908.2789278079, 2,12,60,900.0, 1, 1,15
4,151, 5
353,-1271663483.4966455,-2074328.7746719516, 2,12,60,900.0, 1, 1,15
4,181, 6
353,-1304214299.5268968,-1873505.6255284425,13,12,45,900.0, 1, 1,15
4,212, 7
353,-1294277346.1254364,-1829721.0426488668,31,11,30,900.0, 1, 1,15
4,243, 8
353,-1362581014.9406884,-1872313.584208674, 7,12,60,900.0, 1, 1,15
4,273, 9
353,-1239537314.521155,-2135013.560521843,30,12,30,900.0, 1, 1,15
4,304,10
353,-1430110460.2760239,-2281859.048554264,24,12,15,900.0, 1, 1,15
4,334,11
353,-1092575036.9529703,-2337619.6769070478,17,12,30,900.0, 1, 1,15
4,365,12
353,-1021475816.7940708,-2408898.4811299128, 2,12,15,900.0, 1, 1,15
End of Data
 Number of Records Written=          20
