Program Version,EnergyPlus, Version 9.5.0-de239b2e5f, YMD=2024.11.24 15:06
1,5,Environment Title[],Latitude[deg],Longitude[deg],Time Zone[],Elevation[m]
2,8,Day of Simulation[],Month[],Day of Month[],DST Indicator[1=yes 0=no],Hour[],StartMinute[],EndMinute[],DayType
3,5,Cumulative Day of Simulation[],Month[],Day of Month[],DST Indicator[1=yes 0=no],DayType  ! When Daily Meters Requested
4,2,Cumulative Days of Simulation[],Month[]  ! When Monthly Meters Requested
5,1,Cumulative Days of Simulation[] ! When Run Period Meters Requested
6,1,Calendar Year of Simulation[] ! When Annual Meters Requested
353,9,ElectricityNet:Facility [J] !Monthly [Value,Min,Day,Hour,Minute,Max,Day,Hour,Minute]
End of Data Dictionary
1,VANCOUVER INT'L ANN HTG 99.6% CONDNS DB HVAC Sizing Pass 1,  49.18,-123.17,  -8.00,   2.00
4,1,12
353,57600.0,0.0,21, 9,15,900.0,21, 1,15
1,VANCOUVER INT'L ANN HTG 99% CONDNS DB HVAC Sizing Pass 1,  49.18,-123.17,  -8.00,   2.00
4,1,12
353,57600.0,0.0,21, 9,15,900.0,21, 1,15
1,VANCOUVER INT'L ANN CLG .4% CONDNS DB=>MWB HVAC Sizing Pass 1,  49.18,-123.17,  -8.00,   2.00
4,1, 8
353,-57182869.64212029,-1940789.2872454348,21,13,15,900.0,21, 1,15
1,VANCOUVER INT'L ANN CLG 1% CONDNS DB=>MWB HVAC Sizing Pass 1,  49.18,-123.17,  -8.00,   2.00
4,1, 8
353,-57608206.5700082,-1955446.286269804,21,13,15,900.0,21, 1,15
1,VANCOUVER INT'L ANN HTG 99.6% CONDNS DB,  49.18,-123.17,  -8.00,   2.00
4,1,12
353,57600.0,0.0,21, 9,15,900.0,21, 1,15
1,VANCOUVER INT'L ANN HTG 99% CONDNS DB,  49.18,-123.17,  -8.00,   2.00
4,1,12
353,57600.0,0.0,21, 9,15,900.0,21, 1,15
1,VANCOUVER INT'L ANN CLG .4% CONDNS DB=>MWB,  49.18,-123.17,  -8.00,   2.00
4,1, 8
353,-57182869.64212029,-1940789.2872454348,21,13,15,900.0,21, 1,15
1,VANCOUVER INT'L ANN CLG 1% CONDNS DB=>MWB,  49.18,-123.17,  -8.00,   2.00
4,1, 8
353,-57608206.5700082,-1955446.286269804,21,13,15,900.0,21, 1,15
1,ANNUAL,  49.18,-123.17,  -8.00,   2.00
4,31, 1
353,-436677294.0094375,-2178658.7401781307,27,14,30,900.0, 1, 1,15
4,59, 2
353,-713077712.6898114,-2363456.7766895706,18,13,30,900.0, 1, 1,15
4,90, 3
353,-948372113.2733913,-2455979.017939465, 3,12,60,900.0, 1, 1,15
4,120, 4
353,-1280693284.3572856,-2285578.814814972, 1,13,30,900.0, 1, 1,15
4,151, 5
353,-1326914571.5056384,-2051491.7017722317,19,12,45,900.0, 1, 1,15
4,181, 6
353,-1193795839.1887327,-1949372.937978266, 3,12,60,900.0, 1, 1,15
4,212, 7
353,-1389407985.4420813,-1897614.966027757,17,13,30,900.0, 1, 1,15
4,243, 8
353,-1357546272.115229,-2030070.8461338774,31,14,15,900.0, 1, 1,15
4,273, 9
353,-1274320578.0338596,-2357745.417410267,25,13,15,900.0, 1, 1,15
4,304,10
353,-766711138.4918705,-2302452.923347952,11,12,30,900.0, 1, 1,15
4,334,11
353,-489246277.607247,-2111514.2533374687,21,12,30,900.0, 1, 1,15
4,365,12
353,-409446171.1474413,-2055076.1328194165, 8,12,45,900.0, 1, 1,15
End of Data
 Number of Records Written=          20
