Program Version,EnergyPlus, Version 9.5.0-de239b2e5f, YMD=2024.11.24 15:06
1,5,Environment Title[],Latitude[deg],Longitude[deg],Time Zone[],Elevation[m]
2,8,Day of Simulation[],Month[],Day of Month[],DST Indicator[1=yes 0=no],Hour[],StartMinute[],EndMinute[],DayType
3,5,Cumulative Day of Simulation[],Month[],Day of Month[],DST Indicator[1=yes 0=no],DayType  ! When Daily Meters Requested
4,2,Cumulative Days of Simulation[],Month[]  ! When Monthly Meters Requested
5,1,Cumulative Days of Simulation[] ! When Run Period Meters Requested
6,1,Calendar Year of Simulation[] ! When Annual Meters Requested
353,9,ElectricityNet:Facility [J] !Monthly [Value,Min,Day,Hour,Minute,Max,Day,Hour,Minute]
End of Data Dictionary
1,EL PASO INTERNATIONAL AP  UT ANN HTG 99.6% CONDNS DB HVAC Sizing Pass 1,  31.77,-106.50,  -7.00,1186.00
4,1,12
353,50400.0,0.0,21, 8,15,900.0,21, 1,15
1,EL PASO INTERNATIONAL AP  UT ANN HTG 99% CONDNS DB HVAC Sizing Pass 1,  31.77,-106.50,  -7.00,1186.00
4,1,12
353,50400.0,0.0,21, 8,15,900.0,21, 1,15
1,EL PASO INTERNATIONAL AP  UT ANN CLG .4% CONDNS DB=>MWB HVAC Sizing Pass 1,  31.77,-106.50,  -7.00,1186.00
4,1, 6
353,-52325277.94755783,-1788056.1847470203,21,13,15,900.0,21, 1,15
1,EL PASO INTERNATIONAL AP  UT ANN CLG 1% CONDNS DB=>MWB HVAC Sizing Pass 1,  31.77,-106.50,  -7.00,1186.00
4,1, 6
353,-52658505.497481349,-1799675.6468473029,21,13,15,900.0,21, 1,15
1,EL PASO INTERNATIONAL AP  UT ANN HTG 99.6% CONDNS DB,  31.77,-106.50,  -7.00,1186.00
4,1,12
353,50400.0,0.0,21, 8,15,900.0,21, 1,15
1,EL PASO INTERNATIONAL AP  UT ANN HTG 99% CONDNS DB,  31.77,-106.50,  -7.00,1186.00
4,1,12
353,50400.0,0.0,21, 8,15,900.0,21, 1,15
1,EL PASO INTERNATIONAL AP  UT ANN CLG .4% CONDNS DB=>MWB,  31.77,-106.50,  -7.00,1186.00
4,1, 6
353,-52325277.94755783,-1788056.1847470203,21,13,15,900.0,21, 1,15
1,EL PASO INTERNATIONAL AP  UT ANN CLG 1% CONDNS DB=>MWB,  31.77,-106.50,  -7.00,1186.00
4,1, 6
353,-52658505.497481349,-1799675.6468473029,21,13,15,900.0,21, 1,15
1,ANNUAL,  31.77,-106.50,  -7.00,1186.00
4,31, 1
353,-1602780045.9069684,-2487274.439929156,26,13,30,900.0, 1, 1,15
4,59, 2
353,-1538938692.953711,-2553485.8939944466,24,12,30,900.0, 1, 1,15
4,90, 3
353,-1829200527.2823795,-2580157.675899547, 1,13,30,900.0, 1, 1,15
4,120, 4
353,-1733470608.2688268,-2301739.825653379,22,12,60,900.0, 1, 1,15
4,151, 5
353,-1637757958.925254,-2158778.231045465, 5,12,60,900.0, 1, 1,15
4,181, 6
353,-1489056199.7430793,-1839723.9695250686,10,12,60,900.0, 1, 1,15
4,212, 7
353,-1414041286.8758984,-1829761.7988074972,31,12,60,900.0, 1, 1,15
4,243, 8
353,-1516722751.489993,-1960661.6695259682,25,13,15,900.0, 1, 1,15
4,273, 9
353,-1640538416.4441756,-2241845.888839672,25,13,15,900.0, 1, 1,15
4,304,10
353,-1680498994.4326258,-2317269.7070863347,23,13,30,900.0, 1, 1,15
4,334,11
353,-1650693425.1054855,-2465682.749220263,10,12,30,900.0, 1, 1,15
4,365,12
353,-1581643765.4503003,-2454821.1723793798,29,12,60,900.0, 1, 1,15
End of Data
 Number of Records Written=          20
