Program Version,EnergyPlus, Version 9.5.0-de239b2e5f, YMD=2024.11.24 14:57
1,5,Environment Title[],Latitude[deg],Longitude[deg],Time Zone[],Elevation[m]
2,8,Day of Simulation[],Month[],Day of Month[],DST Indicator[1=yes 0=no],Hour[],StartMinute[],EndMinute[],DayType
3,5,Cumulative Day of Simulation[],Month[],Day of Month[],DST Indicator[1=yes 0=no],DayType  ! When Daily Meters Requested
4,2,Cumulative Days of Simulation[],Month[]  ! When Monthly Meters Requested
5,1,Cumulative Days of Simulation[] ! When Run Period Meters Requested
6,1,Calendar Year of Simulation[] ! When Annual Meters Requested
353,9,ElectricityNet:Facility [J] !Monthly [Value,Min,Day,Hour,Minute,Max,Day,Hour,Minute]
End of Data Dictionary
1,ALBUQUERQUE INTL SUNPORT ANN HTG 99.6% CONDNS DB HVAC Sizing Pass 1,  35.04,-106.62,  -7.00,1619.00
4,1,12
353,51300.0,0.0,21, 8,15,900.0,21, 1,15
1,ALBUQUERQUE INTL SUNPORT ANN HTG 99% CONDNS DB HVAC Sizing Pass 1,  35.04,-106.62,  -7.00,1619.00
4,1,12
353,51300.0,0.0,21, 8,15,900.0,21, 1,15
1,ALBUQUERQUE INTL SUNPORT ANN CLG .4% CONDNS DB=>MWB HVAC Sizing Pass 1,  35.04,-106.62,  -7.00,1619.00
4,1, 7
353,-54435695.44144763,-1858146.6358898746,21,13,15,900.0,21, 1,15
1,ALBUQUERQUE INTL SUNPORT ANN CLG 1% CONDNS DB=>MWB HVAC Sizing Pass 1,  35.04,-106.62,  -7.00,1619.00
4,1, 7
353,-54776869.36233858,-1870012.9708469834,21,13,15,900.0,21, 1,15
1,ALBUQUERQUE INTL SUNPORT ANN HTG 99.6% CONDNS DB,  35.04,-106.62,  -7.00,1619.00
4,1,12
353,51300.0,0.0,21, 8,15,900.0,21, 1,15
1,ALBUQUERQUE INTL SUNPORT ANN HTG 99% CONDNS DB,  35.04,-106.62,  -7.00,1619.00
4,1,12
353,51300.0,0.0,21, 8,15,900.0,21, 1,15
1,ALBUQUERQUE INTL SUNPORT ANN CLG .4% CONDNS DB=>MWB,  35.04,-106.62,  -7.00,1619.00
4,1, 7
353,-54435695.44144763,-1858146.6358898746,21,13,15,900.0,21, 1,15
1,ALBUQUERQUE INTL SUNPORT ANN CLG 1% CONDNS DB=>MWB,  35.04,-106.62,  -7.00,1619.00
4,1, 7
353,-54776869.36233858,-1870012.9708469834,21,13,15,900.0,21, 1,15
1,ANNUAL,  35.04,-106.62,  -7.00,1619.00
4,31, 1
353,-1591482093.8108454,-2612917.5289627008,19,13,30,900.0, 1, 1,15
4,59, 2
353,-1592918643.27201,-2700100.94229965,24,13,30,900.0, 1, 1,15
4,90, 3
353,-1677551152.7143784,-2615583.5751185079, 4,12,60,900.0, 1, 1,15
4,120, 4
353,-1728027390.89625,-2304084.819099898, 6,12,60,900.0, 1, 1,15
4,151, 5
353,-1575891539.6655589,-2225756.3002456899, 5,13,30,900.0, 1, 1,15
4,181, 6
353,-1404580352.3639768,-2023127.0812429018, 9,13,30,900.0, 1, 1,15
4,212, 7
353,-1484732969.088245,-1855607.1183889502,30,12,45,900.0, 1, 1,15
4,243, 8
353,-1625550625.0910307,-2093838.057085955,27,12,30,900.0, 1, 1,15
4,273, 9
353,-1623632734.0501235,-2293281.1830582206,13,13,30,900.0, 1, 1,15
4,304,10
353,-1724461578.527368,-2476223.435313762,13,12,30,900.0, 1, 1,15
4,334,11
353,-1599560184.1014894,-2548525.7796445249, 1,12,60,900.0, 1, 1,15
4,365,12
353,-1642153934.8485468,-2612709.9775208749,14,13,30,900.0, 1, 1,15
End of Data
 Number of Records Written=          20
