Program Version,EnergyPlus, Version 9.5.0-de239b2e5f, YMD=2024.11.24 14:42
1,5,Environment Title[],Latitude[deg],Longitude[deg],Time Zone[],Elevation[m]
2,8,Day of Simulation[],Month[],Day of Month[],DST Indicator[1=yes 0=no],Hour[],StartMinute[],EndMinute[],DayType
3,5,Cumulative Day of Simulation[],Month[],Day of Month[],DST Indicator[1=yes 0=no],DayType  ! When Daily Meters Requested
4,2,Cumulative Days of Simulation[],Month[]  ! When Monthly Meters Requested
5,1,Cumulative Days of Simulation[] ! When Run Period Meters Requested
6,1,Calendar Year of Simulation[] ! When Annual Meters Requested
353,9,ElectricityNet:Facility [J] !Monthly [Value,Min,Day,Hour,Minute,Max,Day,Hour,Minute]
End of Data Dictionary
1,INTERNATIONAL FALLS INTL AP ANN HTG 99.6% CONDNS DB HVAC Sizing Pass 1,  48.57, -93.40,  -6.00, 359.00
4,1, 1
353,54900.0,0.0,21, 9,15,900.0,21, 1,15
1,INTERNATIONAL FALLS INTL AP ANN HTG 99% CONDNS DB HVAC Sizing Pass 1,  48.57, -93.40,  -6.00, 359.00
4,1, 1
353,54900.0,0.0,21, 9,15,900.0,21, 1,15
1,INTERNATIONAL FALLS INTL AP ANN HUM_N 99.6% CONDNS DP=>MCDB HVAC Sizing Pass 1,  48.57, -93.40,  -6.00, 359.00
4,1, 1
353,54900.0,0.0,21, 9,15,900.0,21, 1,15
1,INTERNATIONAL FALLS INTL AP ANN HUM_N 99% CONDNS DP=>MCDB HVAC Sizing Pass 1,  48.57, -93.40,  -6.00, 359.00
4,1, 1
353,54900.0,0.0,21, 9,15,900.0,21, 1,15
1,INTERNATIONAL FALLS INTL AP ANN HTG WIND 99.6% CONDNS WS=>MCDB HVAC Sizing Pass 1,  48.57, -93.40,  -6.00, 359.00
4,1, 1
353,54900.0,0.0,21, 9,15,900.0,21, 1,15
1,INTERNATIONAL FALLS INTL AP ANN HTG WIND 99% CONDNS WS=>MCDB HVAC Sizing Pass 1,  48.57, -93.40,  -6.00, 359.00
4,1, 1
353,54900.0,0.0,21, 9,15,900.0,21, 1,15
1,INTERNATIONAL FALLS INTL AP ANN CLG .4% CONDNS DB=>MWB HVAC Sizing Pass 1,  48.57, -93.40,  -6.00, 359.00
4,1, 7
353,-55936260.04761178,-1880406.3665141373,21,13,15,900.0,21, 1,15
1,INTERNATIONAL FALLS INTL AP ANN CLG 1% CONDNS DB=>MWB HVAC Sizing Pass 1,  48.57, -93.40,  -6.00, 359.00
4,1, 7
353,-56512009.32504486,-1900242.7198382023,21,13,30,900.0,21, 1,15
1,INTERNATIONAL FALLS INTL AP ANN CLG 2% CONDNS DB=>MWB HVAC Sizing Pass 1,  48.57, -93.40,  -6.00, 359.00
4,1, 7
353,-56943388.839127238,-1915112.0703383717,21,13,30,900.0,21, 1,15
1,INTERNATIONAL FALLS INTL AP ANN CLG .4% CONDNS WB=>MDB HVAC Sizing Pass 1,  48.57, -93.40,  -6.00, 359.00
4,1, 7
353,-56655842.80758756,-1905200.3644290653,21,13,30,900.0,21, 1,15
1,INTERNATIONAL FALLS INTL AP ANN CLG 1% CONDNS WB=>MDB HVAC Sizing Pass 1,  48.57, -93.40,  -6.00, 359.00
4,1, 7
353,-57058362.84643266,-1919075.4416403804,21,13,30,900.0,21, 1,15
1,INTERNATIONAL FALLS INTL AP ANN CLG 2% CONDNS WB=>MDB HVAC Sizing Pass 1,  48.57, -93.40,  -6.00, 359.00
4,1, 7
353,-57489295.14995058,-1933931.6187927698,21,13,30,900.0,21, 1,15
1,INTERNATIONAL FALLS INTL AP ANN CLG .4% CONDNS DP=>MDB HVAC Sizing Pass 1,  48.57, -93.40,  -6.00, 359.00
4,1, 7
353,-57173311.88135492,-1923038.0782051064,21,13,30,900.0,21, 1,15
1,INTERNATIONAL FALLS INTL AP ANN CLG 1% CONDNS DP=>MDB HVAC Sizing Pass 1,  48.57, -93.40,  -6.00, 359.00
4,1, 7
353,-57690280.68414646,-1940861.108196992,21,13,30,900.0,21, 1,15
1,INTERNATIONAL FALLS INTL AP ANN CLG 2% CONDNS DP=>MDB HVAC Sizing Pass 1,  48.57, -93.40,  -6.00, 359.00
4,1, 7
353,-58063349.67220008,-1953724.6585008424,21,13,30,900.0,21, 1,15
1,INTERNATIONAL FALLS INTL AP ANN CLG .4% CONDNS ENTH=>MDB HVAC Sizing Pass 1,  48.57, -93.40,  -6.00, 359.00
4,1, 7
353,-56742123.43036178,-1908174.373643973,21,13,30,900.0,21, 1,15
1,INTERNATIONAL FALLS INTL AP ANN CLG 1% CONDNS ENTH=>MDB HVAC Sizing Pass 1,  48.57, -93.40,  -6.00, 359.00
4,1, 7
353,-57115840.46869649,-1921056.8511635003,21,13,30,900.0,21, 1,15
1,INTERNATIONAL FALLS INTL AP ANN CLG 2% CONDNS ENTH=>MDB HVAC Sizing Pass 1,  48.57, -93.40,  -6.00, 359.00
4,1, 7
353,-57460576.97204119,-1932941.5182630998,21,13,30,900.0,21, 1,15
1,INTERNATIONAL FALLS INTL AP ANN HTG 99.6% CONDNS DB,  48.57, -93.40,  -6.00, 359.00
4,1, 1
353,54900.0,0.0,21, 9,15,900.0,21, 1,15
1,INTERNATIONAL FALLS INTL AP ANN HTG 99% CONDNS DB,  48.57, -93.40,  -6.00, 359.00
4,1, 1
353,54900.0,0.0,21, 9,15,900.0,21, 1,15
1,INTERNATIONAL FALLS INTL AP ANN HUM_N 99.6% CONDNS DP=>MCDB,  48.57, -93.40,  -6.00, 359.00
4,1, 1
353,54900.0,0.0,21, 9,15,900.0,21, 1,15
1,INTERNATIONAL FALLS INTL AP ANN HUM_N 99% CONDNS DP=>MCDB,  48.57, -93.40,  -6.00, 359.00
4,1, 1
353,54900.0,0.0,21, 9,15,900.0,21, 1,15
1,INTERNATIONAL FALLS INTL AP ANN HTG WIND 99.6% CONDNS WS=>MCDB,  48.57, -93.40,  -6.00, 359.00
4,1, 1
353,54900.0,0.0,21, 9,15,900.0,21, 1,15
1,INTERNATIONAL FALLS INTL AP ANN HTG WIND 99% CONDNS WS=>MCDB,  48.57, -93.40,  -6.00, 359.00
4,1, 1
353,54900.0,0.0,21, 9,15,900.0,21, 1,15
1,INTERNATIONAL FALLS INTL AP ANN CLG .4% CONDNS DB=>MWB,  48.57, -93.40,  -6.00, 359.00
4,1, 7
353,-55936260.04761178,-1880406.3665141373,21,13,15,900.0,21, 1,15
1,INTERNATIONAL FALLS INTL AP ANN CLG 1% CONDNS DB=>MWB,  48.57, -93.40,  -6.00, 359.00
4,1, 7
353,-56512009.32504486,-1900242.7198382023,21,13,30,900.0,21, 1,15
1,INTERNATIONAL FALLS INTL AP ANN CLG 2% CONDNS DB=>MWB,  48.57, -93.40,  -6.00, 359.00
4,1, 7
353,-56943388.839127238,-1915112.0703383717,21,13,30,900.0,21, 1,15
1,INTERNATIONAL FALLS INTL AP ANN CLG .4% CONDNS WB=>MDB,  48.57, -93.40,  -6.00, 359.00
4,1, 7
353,-56655842.80758756,-1905200.3644290653,21,13,30,900.0,21, 1,15
1,INTERNATIONAL FALLS INTL AP ANN CLG 1% CONDNS WB=>MDB,  48.57, -93.40,  -6.00, 359.00
4,1, 7
353,-57058362.84643266,-1919075.4416403804,21,13,30,900.0,21, 1,15
1,INTERNATIONAL FALLS INTL AP ANN CLG 2% CONDNS WB=>MDB,  48.57, -93.40,  -6.00, 359.00
4,1, 7
353,-57489295.14995058,-1933931.6187927698,21,13,30,900.0,21, 1,15
1,INTERNATIONAL FALLS INTL AP ANN CLG .4% CONDNS DP=>MDB,  48.57, -93.40,  -6.00, 359.00
4,1, 7
353,-57173311.88135492,-1923038.0782051064,21,13,30,900.0,21, 1,15
1,INTERNATIONAL FALLS INTL AP ANN CLG 1% CONDNS DP=>MDB,  48.57, -93.40,  -6.00, 359.00
4,1, 7
353,-57690280.68414646,-1940861.108196992,21,13,30,900.0,21, 1,15
1,INTERNATIONAL FALLS INTL AP ANN CLG 2% CONDNS DP=>MDB,  48.57, -93.40,  -6.00, 359.00
4,1, 7
353,-58063349.67220008,-1953724.6585008424,21,13,30,900.0,21, 1,15
1,INTERNATIONAL FALLS INTL AP ANN CLG .4% CONDNS ENTH=>MDB,  48.57, -93.40,  -6.00, 359.00
4,1, 7
353,-56742123.43036178,-1908174.373643973,21,13,30,900.0,21, 1,15
1,INTERNATIONAL FALLS INTL AP ANN CLG 1% CONDNS ENTH=>MDB,  48.57, -93.40,  -6.00, 359.00
4,1, 7
353,-57115840.46869649,-1921056.8511635003,21,13,30,900.0,21, 1,15
1,INTERNATIONAL FALLS INTL AP ANN CLG 2% CONDNS ENTH=>MDB,  48.57, -93.40,  -6.00, 359.00
4,1, 7
353,-57460576.97204119,-1932941.5182630998,21,13,30,900.0,21, 1,15
1,ANNUAL,  48.57, -93.40,  -6.00, 359.00
4,31, 1
353,-1013365408.6983293,-2620074.3367134907,25,13,30,900.0, 1, 1,15
4,59, 2
353,-1197644358.8365219,-2836044.1230030024,27,13,30,900.0, 1, 1,15
4,90, 3
353,-1298536978.9642814,-2789762.7313839739, 6,13,30,900.0, 1, 1,15
4,120, 4
353,-1320201607.6898769,-2446751.9948769027,19,13,15,900.0, 1, 1,15
4,151, 5
353,-1282386809.0033429,-2198459.5666377467, 1,13,15,900.0, 1, 1,15
4,181, 6
353,-1161145504.9891093,-1908263.7639776522, 7,13,30,900.0, 1, 1,15
4,212, 7
353,-1273539836.236044,-1923053.8991318285,31,13,30,900.0, 1, 1,15
4,243, 8
353,-1207194754.694652,-1985601.4909996752,19,13,30,900.0, 1, 1,15
4,273, 9
353,-1096512999.2528244,-2254118.6028567606,13,13,30,900.0, 1, 1,15
4,304,10
353,-869206858.1812716,-2281085.791407263,18,12,60,900.0, 1, 1,15
4,334,11
353,-707475090.6045542,-2324830.226734332,29,12,60,900.0, 1, 1,15
4,365,12
353,-778526404.7719883,-2516558.492725408,10,13,15,900.0, 1, 1,15
End of Data
 Number of Records Written=          48
