Program Version,EnergyPlus, Version 9.5.0-de239b2e5f, YMD=2024.11.24 14:39
1,5,Environment Title[],Latitude[deg],Longitude[deg],Time Zone[],Elevation[m]
2,8,Day of Simulation[],Month[],Day of Month[],DST Indicator[1=yes 0=no],Hour[],StartMinute[],EndMinute[],DayType
3,5,Cumulative Day of Simulation[],Month[],Day of Month[],DST Indicator[1=yes 0=no],DayType  ! When Daily Meters Requested
4,2,Cumulative Days of Simulation[],Month[]  ! When Monthly Meters Requested
5,1,Cumulative Days of Simulation[] ! When Run Period Meters Requested
6,1,Calendar Year of Simulation[] ! When Annual Meters Requested
353,9,ElectricityNet:Facility [J] !Monthly [Value,Min,Day,Hour,Minute,Max,Day,Hour,Minute]
End of Data Dictionary
1,GREAT FALLS INTL ARPT ANN HTG 99.6% CONDNS DB HVAC Sizing Pass 1,  47.47,-111.38,  -7.00,1117.00
4,1, 1
353,54000.0,0.0,21, 9,15,900.0,21, 1,15
1,GREAT FALLS INTL ARPT ANN HTG 99% CONDNS DB HVAC Sizing Pass 1,  47.47,-111.38,  -7.00,1117.00
4,1, 1
353,54000.0,0.0,21, 9,15,900.0,21, 1,15
1,GREAT FALLS INTL ARPT ANN CLG .4% CONDNS DB=>MWB HVAC Sizing Pass 1,  47.47,-111.38,  -7.00,1117.00
4,1, 7
353,-56889865.13184303,-1913695.8858876164,21,13,30,900.0,21, 1,15
1,GREAT FALLS INTL ARPT ANN CLG 1% CONDNS DB=>MWB HVAC Sizing Pass 1,  47.47,-111.38,  -7.00,1117.00
4,1, 7
353,-57456058.41859287,-1933251.6953145769,21,13,30,900.0,21, 1,15
1,GREAT FALLS INTL ARPT ANN HTG 99.6% CONDNS DB,  47.47,-111.38,  -7.00,1117.00
4,1, 1
353,54000.0,0.0,21, 9,15,900.0,21, 1,15
1,GREAT FALLS INTL ARPT ANN HTG 99% CONDNS DB,  47.47,-111.38,  -7.00,1117.00
4,1, 1
353,54000.0,0.0,21, 9,15,900.0,21, 1,15
1,GREAT FALLS INTL ARPT ANN CLG .4% CONDNS DB=>MWB,  47.47,-111.38,  -7.00,1117.00
4,1, 7
353,-56889865.13184303,-1913695.8858876164,21,13,30,900.0,21, 1,15
1,GREAT FALLS INTL ARPT ANN CLG 1% CONDNS DB=>MWB,  47.47,-111.38,  -7.00,1117.00
4,1, 7
353,-57456058.41859287,-1933251.6953145769,21,13,30,900.0,21, 1,15
1,ANNUAL,  47.47,-111.38,  -7.00,1117.00
4,31, 1
353,-1025343093.9140192,-2869957.8111427857,27,13,30,900.0, 1, 1,15
4,59, 2
353,-1205903136.7452286,-2620351.461052951,10,13,30,900.0, 1, 1,15
4,90, 3
353,-1373277878.9172114,-2872527.2973766957,16,13,30,900.0, 1, 1,15
4,120, 4
353,-1256694005.2122737,-2426023.889476688, 2,13,30,900.0, 1, 1,15
4,151, 5
353,-1328552624.4010223,-2224140.383180216, 1,13,30,900.0, 1, 1,15
4,181, 6
353,-1363990034.7543715,-1917290.1755910088,19,13,45,900.0, 1, 1,15
4,212, 7
353,-1475955759.7120796,-1937834.0070281085, 8,13,30,900.0, 1, 1,15
4,243, 8
353,-1483492853.5016015,-2135701.228611939,18,14,15,900.0, 1, 1,15
4,273, 9
353,-1365202289.6757706,-2339716.270314403,16,13,30,900.0, 1, 1,15
4,304,10
353,-1283991220.6440147,-2513710.294766985,10,13,15,900.0, 1, 1,15
4,334,11
353,-1051092261.6334652,-2390025.570116043,13,12,60,900.0, 1, 1,15
4,365,12
353,-927172538.9132158,-2367848.140712897,17,13,30,900.0, 1, 1,15
End of Data
 Number of Records Written=          20
