Program Version,EnergyPlus, Version 9.5.0-de239b2e5f, YMD=2024.11.24 14:21
1,5,Environment Title[],Latitude[deg],Longitude[deg],Time Zone[],Elevation[m]
2,8,Day of Simulation[],Month[],Day of Month[],DST Indicator[1=yes 0=no],Hour[],StartMinute[],EndMinute[],DayType
3,5,Cumulative Day of Simulation[],Month[],Day of Month[],DST Indicator[1=yes 0=no],DayType  ! When Daily Meters Requested
4,2,Cumulative Days of Simulation[],Month[]  ! When Monthly Meters Requested
5,1,Cumulative Days of Simulation[] ! When Run Period Meters Requested
6,1,Calendar Year of Simulation[] ! When Annual Meters Requested
353,9,ElectricityNet:Facility [J] !Monthly [Value,Min,Day,Hour,Minute,Max,Day,Hour,Minute]
End of Data Dictionary
1,TAMPA-MACDILL AFB ANN HTG 99.6% CONDNS DB HVAC Sizing Pass 1,  27.85, -82.52,  -5.00,   8.00
4,1, 1
353,48600.0,0.0,21, 8,30,900.0,21, 1,15
1,TAMPA-MACDILL AFB ANN HTG 99% CONDNS DB HVAC Sizing Pass 1,  27.85, -82.52,  -5.00,   8.00
4,1, 1
353,48600.0,0.0,21, 8,30,900.0,21, 1,15
1,TAMPA-MACDILL AFB ANN HUM_N 99.6% CONDNS DP=>MCDB HVAC Sizing Pass 1,  27.85, -82.52,  -5.00,   8.00
4,1, 1
353,48600.0,0.0,21, 8,30,900.0,21, 1,15
1,TAMPA-MACDILL AFB ANN HUM_N 99% CONDNS DP=>MCDB HVAC Sizing Pass 1,  27.85, -82.52,  -5.00,   8.00
4,1, 1
353,48600.0,0.0,21, 8,30,900.0,21, 1,15
1,TAMPA-MACDILL AFB ANN HTG WIND 99.6% CONDNS WS=>MCDB HVAC Sizing Pass 1,  27.85, -82.52,  -5.00,   8.00
4,1, 1
353,48600.0,0.0,21, 8,30,900.0,21, 1,15
1,TAMPA-MACDILL AFB ANN HTG WIND 99% CONDNS WS=>MCDB HVAC Sizing Pass 1,  27.85, -82.52,  -5.00,   8.00
4,1, 1
353,48600.0,0.0,21, 8,30,900.0,21, 1,15
1,TAMPA-MACDILL AFB ANN CLG .4% CONDNS DB=>MWB HVAC Sizing Pass 1,  27.85, -82.52,  -5.00,   8.00
4,1, 8
353,-54461620.567627508,-1862817.0147158905,21,13,30,900.0,21, 1,15
1,TAMPA-MACDILL AFB ANN CLG 1% CONDNS DB=>MWB HVAC Sizing Pass 1,  27.85, -82.52,  -5.00,   8.00
4,1, 8
353,-54717832.51895784,-1871716.3534820034,21,13,30,900.0,21, 1,15
1,TAMPA-MACDILL AFB ANN CLG 2% CONDNS DB=>MWB HVAC Sizing Pass 1,  27.85, -82.52,  -5.00,   8.00
4,1, 8
353,-54831640.35555438,-1875669.4317596665,21,13,30,900.0,21, 1,15
1,TAMPA-MACDILL AFB ANN CLG .4% CONDNS WB=>MDB HVAC Sizing Pass 1,  27.85, -82.52,  -5.00,   8.00
4,1, 8
353,-55400096.813496459,-1895415.0097509956,21,13,30,900.0,21, 1,15
1,TAMPA-MACDILL AFB ANN CLG 1% CONDNS WB=>MDB HVAC Sizing Pass 1,  27.85, -82.52,  -5.00,   8.00
4,1, 8
353,-55428494.45287184,-1896401.4331426989,21,13,30,900.0,21, 1,15
1,TAMPA-MACDILL AFB ANN CLG 2% CONDNS WB=>MDB HVAC Sizing Pass 1,  27.85, -82.52,  -5.00,   8.00
4,1, 8
353,-55485282.618142578,-1898374.038478078,21,13,30,900.0,21, 1,15
1,TAMPA-MACDILL AFB ANN CLG .4% CONDNS DP=>MDB HVAC Sizing Pass 1,  27.85, -82.52,  -5.00,   8.00
4,1, 8
353,-55797449.17834167,-1909217.6566724017,21,13,30,900.0,21, 1,15
1,TAMPA-MACDILL AFB ANN CLG 1% CONDNS DP=>MDB HVAC Sizing Pass 1,  27.85, -82.52,  -5.00,   8.00
4,1, 8
353,-55910894.261828798,-1913158.4163895597,21,13,30,900.0,21, 1,15
1,TAMPA-MACDILL AFB ANN CLG 2% CONDNS DP=>MDB HVAC Sizing Pass 1,  27.85, -82.52,  -5.00,   8.00
4,1, 8
353,-55939249.74455197,-1914143.4102074987,21,13,30,900.0,21, 1,15
1,TAMPA-MACDILL AFB ANN CLG .4% CONDNS ENTH=>MDB HVAC Sizing Pass 1,  27.85, -82.52,  -5.00,   8.00
4,1, 8
353,-55314889.62568011,-1892455.2551219534,21,13,30,900.0,21, 1,15
1,TAMPA-MACDILL AFB ANN CLG 1% CONDNS ENTH=>MDB HVAC Sizing Pass 1,  27.85, -82.52,  -5.00,   8.00
4,1, 8
353,-55428494.45287184,-1896401.4331426989,21,13,30,900.0,21, 1,15
1,TAMPA-MACDILL AFB ANN CLG 2% CONDNS ENTH=>MDB HVAC Sizing Pass 1,  27.85, -82.52,  -5.00,   8.00
4,1, 8
353,-55456889.71989987,-1897387.7760084386,21,13,30,900.0,21, 1,15
1,TAMPA-MACDILL AFB ANN HTG 99.6% CONDNS DB,  27.85, -82.52,  -5.00,   8.00
4,1, 1
353,48600.0,0.0,21, 8,30,900.0,21, 1,15
1,TAMPA-MACDILL AFB ANN HTG 99% CONDNS DB,  27.85, -82.52,  -5.00,   8.00
4,1, 1
353,48600.0,0.0,21, 8,30,900.0,21, 1,15
1,TAMPA-MACDILL AFB ANN HUM_N 99.6% CONDNS DP=>MCDB,  27.85, -82.52,  -5.00,   8.00
4,1, 1
353,48600.0,0.0,21, 8,30,900.0,21, 1,15
1,TAMPA-MACDILL AFB ANN HUM_N 99% CONDNS DP=>MCDB,  27.85, -82.52,  -5.00,   8.00
4,1, 1
353,48600.0,0.0,21, 8,30,900.0,21, 1,15
1,TAMPA-MACDILL AFB ANN HTG WIND 99.6% CONDNS WS=>MCDB,  27.85, -82.52,  -5.00,   8.00
4,1, 1
353,48600.0,0.0,21, 8,30,900.0,21, 1,15
1,TAMPA-MACDILL AFB ANN HTG WIND 99% CONDNS WS=>MCDB,  27.85, -82.52,  -5.00,   8.00
4,1, 1
353,48600.0,0.0,21, 8,30,900.0,21, 1,15
1,TAMPA-MACDILL AFB ANN CLG .4% CONDNS DB=>MWB,  27.85, -82.52,  -5.00,   8.00
4,1, 8
353,-54461620.567627508,-1862817.0147158905,21,13,30,900.0,21, 1,15
1,TAMPA-MACDILL AFB ANN CLG 1% CONDNS DB=>MWB,  27.85, -82.52,  -5.00,   8.00
4,1, 8
353,-54717832.51895784,-1871716.3534820034,21,13,30,900.0,21, 1,15
1,TAMPA-MACDILL AFB ANN CLG 2% CONDNS DB=>MWB,  27.85, -82.52,  -5.00,   8.00
4,1, 8
353,-54831640.35555438,-1875669.4317596665,21,13,30,900.0,21, 1,15
1,TAMPA-MACDILL AFB ANN CLG .4% CONDNS WB=>MDB,  27.85, -82.52,  -5.00,   8.00
4,1, 8
353,-55400096.813496459,-1895415.0097509956,21,13,30,900.0,21, 1,15
1,TAMPA-MACDILL AFB ANN CLG 1% CONDNS WB=>MDB,  27.85, -82.52,  -5.00,   8.00
4,1, 8
353,-55428494.45287184,-1896401.4331426989,21,13,30,900.0,21, 1,15
1,TAMPA-MACDILL AFB ANN CLG 2% CONDNS WB=>MDB,  27.85, -82.52,  -5.00,   8.00
4,1, 8
353,-55485282.618142578,-1898374.038478078,21,13,30,900.0,21, 1,15
1,TAMPA-MACDILL AFB ANN CLG .4% CONDNS DP=>MDB,  27.85, -82.52,  -5.00,   8.00
4,1, 8
353,-55797449.17834167,-1909217.6566724017,21,13,30,900.0,21, 1,15
1,TAMPA-MACDILL AFB ANN CLG 1% CONDNS DP=>MDB,  27.85, -82.52,  -5.00,   8.00
4,1, 8
353,-55910894.261828798,-1913158.4163895597,21,13,30,900.0,21, 1,15
1,TAMPA-MACDILL AFB ANN CLG 2% CONDNS DP=>MDB,  27.85, -82.52,  -5.00,   8.00
4,1, 8
353,-55939249.74455197,-1914143.4102074987,21,13,30,900.0,21, 1,15
1,TAMPA-MACDILL AFB ANN CLG .4% CONDNS ENTH=>MDB,  27.85, -82.52,  -5.00,   8.00
4,1, 8
353,-55314889.62568011,-1892455.2551219534,21,13,30,900.0,21, 1,15
1,TAMPA-MACDILL AFB ANN CLG 1% CONDNS ENTH=>MDB,  27.85, -82.52,  -5.00,   8.00
4,1, 8
353,-55428494.45287184,-1896401.4331426989,21,13,30,900.0,21, 1,15
1,TAMPA-MACDILL AFB ANN CLG 2% CONDNS ENTH=>MDB,  27.85, -82.52,  -5.00,   8.00
4,1, 8
353,-55456889.71989987,-1897387.7760084386,21,13,30,900.0,21, 1,15
1,ANNUAL,  27.85, -82.52,  -5.00,   8.00
4,31, 1
353,-1529872962.0287398,-2354264.6487266866,23,13,60,900.0, 1, 1,15
4,59, 2
353,-1454946643.0129638,-2470311.9660037278, 5,14,30,900.0, 1, 1,15
4,90, 3
353,-1410461541.3496233,-2308400.2885675488, 8,13,30,900.0, 1, 1,15
4,120, 4
353,-1419752128.3153735,-2180825.3006564446, 2,14,30,900.0, 1, 1,15
4,151, 5
353,-1220361601.668523,-1845153.4209245207,15,13,30,900.0, 1, 1,15
4,181, 6
353,-1219770748.593642,-1751606.2512773798, 9,13,30,900.0, 1, 1,15
4,212, 7
353,-1228683487.441409,-1700263.6337756089,20,14,30,900.0, 1, 1,15
4,243, 8
353,-1282697319.2266036,-1891049.3087967374,29,14,30,900.0, 1, 1,15
4,273, 9
353,-1216778794.848252,-1898537.5148201374,21,13,30,900.0, 1, 1,15
4,304,10
353,-1452459086.8442548,-2145561.3331590609,17,13,15,900.0, 1, 1,15
4,334,11
353,-1437247987.1763876,-2291669.1838899359,15,13,30,900.0, 1, 1,15
4,365,12
353,-1422165089.1148523,-2272431.009186333,26,13,45,900.0, 1, 1,15
End of Data
 Number of Records Written=          48
