Program Version,EnergyPlus, Version 9.5.0-de239b2e5f, YMD=2024.12.04 11:58
1,5,Environment Title[],Latitude[deg],Longitude[deg],Time Zone[],Elevation[m]
2,8,Day of Simulation[],Month[],Day of Month[],DST Indicator[1=yes 0=no],Hour[],StartMinute[],EndMinute[],DayType
3,5,Cumulative Day of Simulation[],Month[],Day of Month[],DST Indicator[1=yes 0=no],DayType  ! When Daily Meters Requested
4,2,Cumulative Days of Simulation[],Month[]  ! When Monthly Meters Requested
5,1,Cumulative Days of Simulation[] ! When Run Period Meters Requested
6,1,Calendar Year of Simulation[] ! When Annual Meters Requested
51,9,InteriorLights:Electricity [J] !Monthly [Value,Min,Day,Hour,Minute,Max,Day,Hour,Minute]
88,9,InteriorEquipment:Electricity [J] !Monthly [Value,Min,Day,Hour,Minute,Max,Day,Hour,Minute]
208,9,Fans:Electricity [J] !Monthly [Value,Min,Day,Hour,Minute,Max,Day,Hour,Minute]
730,9,Heating:Electricity [J] !Monthly [Value,Min,Day,Hour,Minute,Max,Day,Hour,Minute]
692,9,Cooling:Electricity [J] !Monthly [Value,Min,Day,Hour,Minute,Max,Day,Hour,Minute]
545,9,ElectricityNet:Facility [J] !Monthly [Value,Min,Day,Hour,Minute,Max,Day,Hour,Minute]
End of Data Dictionary
1,CHICAGO MIDWAY AP ANN HTG 99.6% CONDNS DB HVAC Sizing Pass 1,  41.78, -87.75,  -6.00, 186.00
4,1, 1
51,0.0,0.0,21, 1,15,0.0,21, 1,15
88,2850410.958904104,29691.780821917808,21, 1,15,29691.780821917808,21, 1,15
208,17628411.882112624,183505.40423304824,21, 1,15,186478.67316804824,21, 7,15
545,959368295.9634296,8909602.981812422,21, 1,15,10452841.178413157,21,24,60
692,0.0,0.0,21, 1,15,0.0,21, 1,15
730,937973273.1224129,8686505.796757456,21, 1,15,10229743.993358192,21,24,60
1,CHICAGO MIDWAY AP ANN HTG 99% CONDNS DB HVAC Sizing Pass 1,  41.78, -87.75,  -6.00, 186.00
4,1, 1
51,0.0,0.0,21, 1,15,0.0,21, 1,15
88,2850410.958904104,29691.780821917808,21, 1,15,29691.780821917808,21, 1,15
208,17628411.882112624,183505.40423304824,21, 1,15,186478.67316804824,21, 7,15
545,830960627.5242696,7583028.340840417,21, 1,15,9107982.883562863,21,24,60
692,0.0,0.0,21, 1,15,0.0,21, 1,15
730,809565604.6832525,7359931.15578545,21, 1,15,8884885.698507898,21,24,60
1,CHICAGO MIDWAY AP ANN CLG .4% CONDNS DB=>MWB HVAC Sizing Pass 1,  41.78, -87.75,  -6.00, 186.00
4,1, 7
51,0.0,0.0,21, 1,15,0.0,21, 1,15
88,69415422.8001402,723077.3208347943,21, 1,15,723077.3208347943,21, 1,15
208,0.0,0.0,21, 1,15,0.0,21, 1,15
545,17409679.82475807,-1065484.4991539813,21,12,60,732977.3208347943,21, 1,15
692,0.0,0.0,21, 1,15,0.0,21, 1,15
730,0.0,0.0,21, 1,15,0.0,21, 1,15
1,CHICAGO MIDWAY AP ANN CLG 1% CONDNS DB=>MWB HVAC Sizing Pass 1,  41.78, -87.75,  -6.00, 186.00
4,1, 7
51,0.0,0.0,21, 1,15,0.0,21, 1,15
88,69415422.8001402,723077.3208347943,21, 1,15,723077.3208347943,21, 1,15
208,0.0,0.0,21, 1,15,0.0,21, 1,15
545,17022484.05758063,-1078926.4926251232,21,12,60,732977.3208347943,21, 1,15
692,0.0,0.0,21, 1,15,0.0,21, 1,15
730,0.0,0.0,21, 1,15,0.0,21, 1,15
1,CHICAGO MIDWAY AP ANN HTG 99.6% CONDNS DB,  41.78, -87.75,  -6.00, 186.00
4,1, 1
51,0.0,0.0,21, 1,15,0.0,21, 1,15
88,2850410.958904104,29691.780821917808,21, 1,15,29691.780821917808,21, 1,15
208,17628411.882112624,183505.40423304824,21, 1,15,186478.67316804824,21, 7,15
545,959625920.7374846,8912630.017634059,21, 1,15,10455387.111639189,21,24,60
692,0.0,0.0,21, 1,15,0.0,21, 1,15
730,938230897.8964684,8689532.832579093,21, 1,15,10232289.926584224,21,24,60
1,CHICAGO MIDWAY AP ANN HTG 99% CONDNS DB,  41.78, -87.75,  -6.00, 186.00
4,1, 1
51,0.0,0.0,21, 1,15,0.0,21, 1,15
88,2850410.958904104,29691.780821917808,21, 1,15,29691.780821917808,21, 1,15
208,17628411.882112624,183505.40423304824,21, 1,15,186478.67316804824,21, 7,15
545,830960384.6701031,7583025.490253262,21, 1,15,9107980.488294147,21,24,60
692,0.0,0.0,21, 1,15,0.0,21, 1,15
730,809565361.8290871,7359928.305198296,21, 1,15,8884883.303239182,21,24,60
1,CHICAGO MIDWAY AP ANN CLG .4% CONDNS DB=>MWB,  41.78, -87.75,  -6.00, 186.00
4,1, 7
51,0.0,0.0,21, 1,15,0.0,21, 1,15
88,69415422.8001402,723077.3208347943,21, 1,15,723077.3208347943,21, 1,15
208,0.0,0.0,21, 1,15,0.0,21, 1,15
545,17409679.82475807,-1065484.4991539813,21,12,60,732977.3208347943,21, 1,15
692,0.0,0.0,21, 1,15,0.0,21, 1,15
730,0.0,0.0,21, 1,15,0.0,21, 1,15
1,CHICAGO MIDWAY AP ANN CLG 1% CONDNS DB=>MWB,  41.78, -87.75,  -6.00, 186.00
4,1, 7
51,0.0,0.0,21, 1,15,0.0,21, 1,15
88,69415422.8001402,723077.3208347943,21, 1,15,723077.3208347943,21, 1,15
208,0.0,0.0,21, 1,15,0.0,21, 1,15
545,17022484.05758063,-1078926.4926251232,21,12,60,732977.3208347943,21, 1,15
692,0.0,0.0,21, 1,15,0.0,21, 1,15
730,0.0,0.0,21, 1,15,0.0,21, 1,15
1,ANNUAL,  41.78, -87.75,  -6.00, 186.00
4,31, 1
51,0.0,0.0, 1, 1,15,0.0, 1, 1,15
88,88362739.72603122,29691.780821917808, 1, 1,15,29691.780821917808, 1, 1,15
208,369160048.39311406,0.0,27, 1,15,186478.67316804824, 1, 7,15
545,11281146384.906849,-2512636.741462307,30,12,60,10877404.794222204, 6, 6,60
692,0.0,0.0, 1, 1,15,0.0, 1, 1,15
730,11707827121.245816,0.0,27, 1,15,10654307.609167239, 6, 6,60
4,59, 2
51,0.0,0.0, 1, 1,15,0.0, 1, 1,15
88,79811506.84931842,29691.780821917808, 1, 1,15,29691.780821917808, 1, 1,15
208,245103481.62250636,0.0, 1, 1,15,186478.67316804824, 3, 7,15
545,10235639555.392132,-2580501.9190653597, 2,12,60,21969783.033573957, 3, 7,15
692,0.0,0.0, 1, 1,15,0.0, 1, 1,15
730,10837335452.134129,0.0, 1, 1,15,21743712.57958399, 3, 1,30
4,90, 3
51,0.0,0.0, 1, 1,15,0.0, 1, 1,15
88,88362739.72603122,29691.780821917808, 1, 1,15,29691.780821917808, 1, 1,15
208,165568630.4687141,0.0,11,12,45,186478.67316804824, 1, 7,15
545,5150962112.294276,-2254861.5269523465,11,13,15,7822548.71457668, 1, 7,45
692,0.0,0.0, 1, 1,15,0.0, 1, 1,15
730,5934363261.900805,0.0,11,12,45,7694910.005496799, 1, 7,45
4,120, 4
51,0.0,0.0, 1, 1,15,0.0, 1, 1,15
88,85512328.76712695,29691.780821917808, 1, 1,15,29691.780821917808, 1, 1,15
208,47561082.68073942,0.0, 1,17,30,27986.343135534265, 1, 7,15
545,430159173.1207782,-2278147.7663015329,10,13,15,2545417.3779404305,10, 5,60
692,0.0,0.0, 1, 1,15,0.0, 1, 1,15
730,1333404974.3389316,0.0, 1,17,30,2480812.5229179786,10, 5,60
4,151, 5
51,0.0,0.0, 1, 1,15,0.0, 1, 1,15
88,88362739.72603122,29691.780821917808, 1, 1,15,29691.780821917808, 1, 1,15
208,25536624.295898506,0.0, 1, 1,15,27986.343135534265, 1, 7,15
545,-713223664.9844059,-2041130.801150138, 3,12,45,2238485.774502808, 2, 5,60
692,369531.44221732296,0.0, 1, 1,15,59097.10303184061,27,18,15
730,414498344.61980906,0.0, 1, 1,15,2277029.0930833157, 2, 6,60
4,181, 6
51,0.0,0.0, 1, 1,15,0.0, 1, 1,15
88,85512328.76712695,29691.780821917808, 1, 1,15,29691.780821917808, 1, 1,15
208,45789894.69448942,0.0, 1,13,45,27986.343135534265, 1, 7,15
545,-76963190.54826992,-1773524.906668914,23,12,30,1389730.268422134,13,18,30
692,863445872.4441244,0.0, 1, 1,15,1692533.9100131565,14,15,60
730,102401845.61359293,0.0, 1,13,45,604184.4150910141, 4, 7,60
4,212, 7
51,0.0,0.0, 1, 1,15,0.0, 1, 1,15
88,88362739.72603122,29691.780821917808, 1, 1,15,29691.780821917808, 1, 1,15
208,49163031.06475018,0.0, 1, 4,15,27986.343135534265, 1, 7,15
545,-36338380.38241018,-1713522.0653812946,24,12,60,1328366.805370921,17,19,45
692,1124307105.5357664,0.0, 1, 4,15,1570290.3670493945,17,16,15
730,0.0,0.0, 1, 1,15,0.0, 1, 1,15
4,243, 8
51,0.0,0.0, 1, 1,15,0.0, 1, 1,15
88,88362739.72603122,29691.780821917808, 1, 1,15,29691.780821917808, 1, 1,15
208,60858067.490228857,0.0, 3, 4,45,27986.343135534265, 1, 7,15
545,237404737.78148929,-1358908.0305360798, 7,12,30,1679679.614077119, 1,18,45
692,1391448520.8640288,0.0, 3, 4,45,1862143.911128117, 1,17,30
730,0.0,0.0, 1, 1,15,0.0, 1, 1,15
4,273, 9
51,0.0,0.0, 1, 1,15,0.0, 1, 1,15
88,85512328.76712695,29691.780821917808, 1, 1,15,29691.780821917808, 1, 1,15
208,38905745.83762673,0.0, 1, 3,30,27986.343135534265, 1,19,15
545,-374023513.6406643,-2007323.677286558,23,12,45,1400121.8404209896, 6,18,15
692,800550279.4361189,0.0, 1, 3,30,1870344.6202143927, 6,16,15
730,0.0,0.0, 1, 1,15,0.0, 1, 1,15
4,304,10
51,0.0,0.0, 1, 1,15,0.0, 1, 1,15
88,88362739.72603122,29691.780821917808, 1, 1,15,29691.780821917808, 1, 1,15
208,37244628.42424865,0.0, 1, 1,15,27986.343135534265, 1,19,15
545,-72280439.7291748,-2125803.4511782389,15,12,30,2492793.5907245187,25, 6,60
692,183118993.73317266,0.0, 1, 1,15,1405306.0646794309, 4,16,45
730,694611728.7898821,0.0, 1, 1,15,2428188.735702066,25, 6,60
4,334,11
51,0.0,0.0, 1, 1,15,0.0, 1, 1,15
88,85512328.76712695,29691.780821917808, 1, 1,15,29691.780821917808, 1, 1,15
208,72807553.65200377,0.0, 1, 8,60,186478.67316804824, 3, 7,15
545,1511975860.631098,-2038524.5672812525, 4,12,30,4602297.766746414,30, 7,60
692,0.0,0.0, 1, 1,15,0.0, 1, 1,15
730,2534891877.859241,0.0, 1, 8,60,4379200.581691447,30, 7,60
4,365,12
51,0.0,0.0, 1, 1,15,0.0, 1, 1,15
88,88362739.72603122,29691.780821917808, 1, 1,15,29691.780821917808, 1, 1,15
208,311767571.324607,0.0, 9,13,15,186478.67316804824, 1, 7,15
545,10111035496.499014,-1959493.746002627,31,13,15,10966687.290201845,19, 8,15
692,0.0,0.0, 1, 1,15,0.0, 1, 1,15
730,10716523259.332858,0.0, 9,13,15,10745312.590575317,19, 8,30
End of Data
 Number of Records Written=         120
