Program Version,EnergyPlus, Version 9.5.0-de239b2e5f, YMD=2024.12.04 11:57
1,5,Environment Title[],Latitude[deg],Longitude[deg],Time Zone[],Elevation[m]
2,8,Day of Simulation[],Month[],Day of Month[],DST Indicator[1=yes 0=no],Hour[],StartMinute[],EndMinute[],DayType
3,5,Cumulative Day of Simulation[],Month[],Day of Month[],DST Indicator[1=yes 0=no],DayType  ! When Daily Meters Requested
4,2,Cumulative Days of Simulation[],Month[]  ! When Monthly Meters Requested
5,1,Cumulative Days of Simulation[] ! When Run Period Meters Requested
6,1,Calendar Year of Simulation[] ! When Annual Meters Requested
51,9,InteriorLights:Electricity [J] !Monthly [Value,Min,Day,Hour,Minute,Max,Day,Hour,Minute]
88,9,InteriorEquipment:Electricity [J] !Monthly [Value,Min,Day,Hour,Minute,Max,Day,Hour,Minute]
208,9,Fans:Electricity [J] !Monthly [Value,Min,Day,Hour,Minute,Max,Day,Hour,Minute]
730,9,Heating:Electricity [J] !Monthly [Value,Min,Day,Hour,Minute,Max,Day,Hour,Minute]
692,9,Cooling:Electricity [J] !Monthly [Value,Min,Day,Hour,Minute,Max,Day,Hour,Minute]
545,9,ElectricityNet:Facility [J] !Monthly [Value,Min,Day,Hour,Minute,Max,Day,Hour,Minute]
End of Data Dictionary
1,CHICAGO MIDWAY AP ANN HTG 99.6% CONDNS DB HVAC Sizing Pass 1,  41.78, -87.75,  -6.00, 186.00
4,1, 1
51,0.0,0.0,21, 1,15,0.0,21, 1,15
88,3550684.931506854,36986.30136986301,21, 1,15,36986.30136986301,21, 1,15
208,32895409.72948556,342536.6318098501,21, 1,15,345509.9007448501,21, 7,15
545,1814159293.6624187,17793837.302632616,21, 1,15,19350700.06183546,21,24,60
692,0.0,0.0,21, 1,15,0.0,21, 1,15
730,1776796999.0014265,17404414.369452906,21, 1,15,18961277.12865575,21,24,60
1,CHICAGO MIDWAY AP ANN HTG 99% CONDNS DB HVAC Sizing Pass 1,  41.78, -87.75,  -6.00, 186.00
4,1, 1
51,0.0,0.0,21, 1,15,0.0,21, 1,15
88,3550684.931506854,36986.30136986301,21, 1,15,36986.30136986301,21, 1,15
208,32895409.72948556,342536.6318098501,21, 1,15,345509.9007448501,21, 7,15
545,1573971327.6920663,15301656.7069931,21, 1,15,16841301.15629681,21,24,60
692,0.0,0.0,21, 1,15,0.0,21, 1,15
730,1536609033.0310748,14912233.773813388,21, 1,15,16451878.223117097,21,24,60
1,CHICAGO MIDWAY AP ANN CLG .4% CONDNS DB=>MWB HVAC Sizing Pass 1,  41.78, -87.75,  -6.00, 186.00
4,1, 7
51,0.0,0.0,21, 1,15,0.0,21, 1,15
88,70115696.77274309,730371.8413827395,21, 1,15,730371.8413827395,21, 1,15
208,0.0,0.0,21, 1,15,0.0,21, 1,15
545,18109953.797360805,-1058189.9786060362,21,12,60,740271.8413827395,21, 1,15
692,0.0,0.0,21, 1,15,0.0,21, 1,15
730,0.0,0.0,21, 1,15,0.0,21, 1,15
1,CHICAGO MIDWAY AP ANN CLG 1% CONDNS DB=>MWB HVAC Sizing Pass 1,  41.78, -87.75,  -6.00, 186.00
4,1, 7
51,0.0,0.0,21, 1,15,0.0,21, 1,15
88,70115696.77274309,730371.8413827395,21, 1,15,730371.8413827395,21, 1,15
208,0.0,0.0,21, 1,15,0.0,21, 1,15
545,17722758.030183365,-1071631.9720771779,21,12,60,740271.8413827395,21, 1,15
692,0.0,0.0,21, 1,15,0.0,21, 1,15
730,0.0,0.0,21, 1,15,0.0,21, 1,15
1,CHICAGO MIDWAY AP ANN HTG 99.6% CONDNS DB,  41.78, -87.75,  -6.00, 186.00
4,1, 1
51,0.0,0.0,21, 1,15,0.0,21, 1,15
88,3550684.931506854,36986.30136986301,21, 1,15,36986.30136986301,21, 1,15
208,32895409.72948556,342536.6318098501,21, 1,15,345509.9007448501,21, 7,15
545,1814418150.88037,17796903.82565149,21, 1,15,19353259.299630494,21,24,60
692,0.0,0.0,21, 1,15,0.0,21, 1,15
730,1777055856.219379,17407480.89247178,21, 1,15,18963836.366450784,21,24,60
1,CHICAGO MIDWAY AP ANN HTG 99% CONDNS DB,  41.78, -87.75,  -6.00, 186.00
4,1, 1
51,0.0,0.0,21, 1,15,0.0,21, 1,15
88,3550684.931506854,36986.30136986301,21, 1,15,36986.30136986301,21, 1,15
208,32895409.72948556,342536.6318098501,21, 1,15,345509.9007448501,21, 7,15
545,1573971083.5984719,15301653.81357072,21, 1,15,16841298.747702816,21,24,60
692,0.0,0.0,21, 1,15,0.0,21, 1,15
730,1536608788.9374788,14912230.880391008,21, 1,15,16451875.814523099,21,24,60
1,CHICAGO MIDWAY AP ANN CLG .4% CONDNS DB=>MWB,  41.78, -87.75,  -6.00, 186.00
4,1, 7
51,0.0,0.0,21, 1,15,0.0,21, 1,15
88,70115696.77274309,730371.8413827395,21, 1,15,730371.8413827395,21, 1,15
208,0.0,0.0,21, 1,15,0.0,21, 1,15
545,18109953.797360805,-1058189.9786060362,21,12,60,740271.8413827395,21, 1,15
692,0.0,0.0,21, 1,15,0.0,21, 1,15
730,0.0,0.0,21, 1,15,0.0,21, 1,15
1,CHICAGO MIDWAY AP ANN CLG 1% CONDNS DB=>MWB,  41.78, -87.75,  -6.00, 186.00
4,1, 7
51,0.0,0.0,21, 1,15,0.0,21, 1,15
88,70115696.77274309,730371.8413827395,21, 1,15,730371.8413827395,21, 1,15
208,0.0,0.0,21, 1,15,0.0,21, 1,15
545,17722758.030183365,-1071631.9720771779,21,12,60,740271.8413827395,21, 1,15
692,0.0,0.0,21, 1,15,0.0,21, 1,15
730,0.0,0.0,21, 1,15,0.0,21, 1,15
1,ANNUAL,  41.78, -87.75,  -6.00, 186.00
4,31, 1
51,0.0,0.0, 1, 1,15,0.0, 1, 1,15
88,110071232.87670824,36986.30136986301, 1, 1,15,36986.30136986301, 1, 1,15
208,688693387.9867183,0.0,27, 1,15,345509.9007448501, 1, 7,15
545,21931499062.728204,-2505342.220914362,30,12,60,20464300.179005285, 6, 6,60
692,0.0,0.0, 1, 1,15,0.0, 1, 1,15
730,22016937966.323495,0.0,27, 1,15,20074877.245825575, 6, 6,60
4,59, 2
51,0.0,0.0, 1, 1,15,0.0, 1, 1,15
88,99419178.08218834,36986.30136986301, 1, 1,15,36986.30136986301, 1, 1,15
208,454158726.5273613,0.0, 1, 1,15,345509.9007448501, 3, 7,15
545,19047924163.92954,-2573207.3985174146, 2,12,60,39966686.76292142, 3, 1,30
692,0.0,0.0, 1, 1,15,0.0, 1, 1,15
730,19418856547.314409,0.0, 1, 1,15,39577263.829741727, 3, 1,15
4,90, 3
51,0.0,0.0, 1, 1,15,0.0, 1, 1,15
88,110071232.87670824,36986.30136986301, 1, 1,15,36986.30136986301, 1, 1,15
208,313214736.08513519,0.0,11,13,45,345509.9007448501, 1, 7,15
545,10736517151.620192,-2217227.7371614577,11,13,30,14350484.395063336, 1, 7,45
692,0.0,0.0, 1, 1,15,0.0, 1, 1,15
730,11350563702.459635,0.0,11,13,45,14056519.937858709, 1, 7,45
4,120, 4
51,0.0,0.0, 1, 1,15,0.0, 1, 1,15
88,106520547.9452016,36986.30136986301, 1, 1,15,36986.30136986301, 1, 1,15
208,102617717.51552885,0.0, 2, 9,30,49663.415329706775, 1, 7,15
545,2146651471.8112519,-2201713.1515142854, 4,12,60,4818833.346909563,10, 5,60
692,0.0,0.0, 1, 1,15,0.0, 1, 1,15
730,2973832419.016533,0.0, 2, 9,30,4725256.899144992,10, 5,60
4,151, 5
51,0.0,0.0, 1, 1,15,0.0, 1, 1,15
88,110071232.87670824,36986.30136986301, 1, 1,15,36986.30136986301, 1, 1,15
208,75154644.7642507,0.0, 3,12,45,49663.415329706775, 1, 7,15
545,368911154.15165528,-2033836.280602193, 3,12,45,4488098.969556573, 2, 6,60
692,4541884.975126974,0.0, 1, 1,15,414069.99027519076, 9,17,15
730,1421134296.6039334,0.0, 3,12,45,4513547.320311813, 2, 6,60
4,181, 6
51,0.0,0.0, 1, 1,15,0.0, 1, 1,15
88,106520547.9452016,36986.30136986301, 1, 1,15,36986.30136986301, 1, 1,15
208,80903720.34902784,0.0, 1,14,30,49663.415329706775, 1, 7,15
545,406900708.6158611,-1766230.3861209688,23,12,30,2159363.4598262344,13,18,30
692,1055659021.8068373,0.0, 1, 1,15,2594953.8961587885,14,15,60
730,337930550.58239606,0.0, 1,14,30,1344240.9574045949, 1, 1,15
4,212, 7
51,0.0,0.0, 1, 1,15,0.0, 1, 1,15
88,110071232.87670824,36986.30136986301, 1, 1,15,36986.30136986301, 1, 1,15
208,74154817.96718039,0.0, 1, 2,30,49663.415329706775, 1,19,15
545,163904489.28114496,-1706227.5448333494,24,12,60,1965998.1062989992,17,19,60
692,1277849695.1462105,0.0, 1, 2,30,2323795.337762917,17,14,60
730,0.0,0.0, 1, 1,15,0.0, 1, 1,15
4,243, 8
51,0.0,0.0, 1, 1,15,0.0, 1, 1,15
88,110071232.87670824,36986.30136986301, 1, 1,15,36986.30136986301, 1, 1,15
208,87265011.65913895,0.0, 2,23,60,49663.415329706775, 1, 7,15
545,466774786.1146495,-1406148.439253845, 7,12,30,2591494.3742731709, 1,18,30
692,1572703131.8775969,0.0, 2,23,60,2804263.0184186694, 1,17,30
730,0.0,0.0, 1, 1,15,0.0, 1, 1,15
4,273, 9
51,0.0,0.0, 1, 1,15,0.0, 1, 1,15
88,106520547.9452016,36986.30136986301, 1, 1,15,36986.30136986301, 1, 1,15
208,49998904.19699684,0.0, 1, 1,15,49663.415329706775, 1,19,15
545,-333302095.4171014,-2000029.156738613,23,12,45,2159224.4608928069, 6,17,15
692,807771333.8595106,0.0, 1, 1,15,2776685.2711897015, 6,16,30
730,1398986.2627173647,0.0, 1, 1,15,114295.76537234159,23, 5,15
4,304,10
51,0.0,0.0, 1, 1,15,0.0, 1, 1,15
88,110071232.87670824,36986.30136986301, 1, 1,15,36986.30136986301, 1, 1,15
208,94085836.45693845,0.0, 1, 1,15,49663.415329706775, 1, 7,15
545,1294596407.7379897,-2118508.9306302939,15,12,30,4851310.912302042,25, 6,60
692,197060640.42452676,0.0, 1, 1,15,1925788.0324476255, 4,16,45
730,1968997228.38232,0.0, 1, 1,15,4757734.4645374719,25, 6,60
4,334,11
51,0.0,0.0, 1, 1,15,0.0, 1, 1,15
88,106520547.9452016,36986.30136986301, 1, 1,15,36986.30136986301, 1, 1,15
208,148440982.17161689,0.0, 1, 9,30,345509.9007448501, 3, 7,15
545,4563115446.642339,-2031230.0467333075, 4,12,30,8470403.13473895,30, 7,60
692,0.0,0.0, 1, 1,15,0.0, 1, 1,15
730,5489389816.1727709,0.0, 1, 9,30,8080980.201559236,30, 7,60
4,365,12
51,0.0,0.0, 1, 1,15,0.0, 1, 1,15
88,110071232.87670824,36986.30136986301, 1, 1,15,36986.30136986301, 1, 1,15
208,582515554.1004344,46690.146394706775, 1,14,15,345509.9007448501, 1, 7,15
545,19984572938.410608,-1584001.892869554, 9,13,15,20831479.574711175,19, 8,15
692,0.0,0.0, 1, 1,15,0.0, 1, 1,15
730,20297604225.31794,145409.4306795351, 9,13,60,20648183.62519849,19, 8,60
End of Data
 Number of Records Written=         120
