Program Version,EnergyPlus, Version 9.5.0-de239b2e5f, YMD=2024.12.04 11:58
1,5,Environment Title[],Latitude[deg],Longitude[deg],Time Zone[],Elevation[m]
2,8,Day of Simulation[],Month[],Day of Month[],DST Indicator[1=yes 0=no],Hour[],StartMinute[],EndMinute[],DayType
3,5,Cumulative Day of Simulation[],Month[],Day of Month[],DST Indicator[1=yes 0=no],DayType  ! When Daily Meters Requested
4,2,Cumulative Days of Simulation[],Month[]  ! When Monthly Meters Requested
5,1,Cumulative Days of Simulation[] ! When Run Period Meters Requested
6,1,Calendar Year of Simulation[] ! When Annual Meters Requested
50,9,InteriorLights:Electricity [J] !Monthly [Value,Min,Day,Hour,Minute,Max,Day,Hour,Minute]
87,9,InteriorEquipment:Electricity [J] !Monthly [Value,Min,Day,Hour,Minute,Max,Day,Hour,Minute]
207,9,Fans:Electricity [J] !Monthly [Value,Min,Day,Hour,Minute,Max,Day,Hour,Minute]
725,9,Heating:Electricity [J] !Monthly [Value,Min,Day,Hour,Minute,Max,Day,Hour,Minute]
687,9,Cooling:Electricity [J] !Monthly [Value,Min,Day,Hour,Minute,Max,Day,Hour,Minute]
543,9,ElectricityNet:Facility [J] !Monthly [Value,Min,Day,Hour,Minute,Max,Day,Hour,Minute]
End of Data Dictionary
1,CHICAGO MIDWAY AP ANN HTG 99.6% CONDNS DB HVAC Sizing Pass 1,  41.78, -87.75,  -6.00, 186.00
4,1, 1
50,0.0,0.0,21, 1,15,0.0,21, 1,15
87,2850410.958904104,29691.780821917808,21, 1,15,29691.780821917808,21, 1,15
207,8731433.587245049,90952.43320046926,21, 1,15,90952.43320046926,21, 1,15
543,214219389.35472698,1101596.6893696939,21, 1,30,3032805.9981067159,21,22,30
687,0.0,0.0,21, 1,15,0.0,21, 1,15
725,195537757.0607742,971052.4753473067,21, 1,30,2541682.49529057,21,24,60
1,CHICAGO MIDWAY AP ANN HTG 99% CONDNS DB HVAC Sizing Pass 1,  41.78, -87.75,  -6.00, 186.00
4,1, 1
50,0.0,0.0,21, 1,15,0.0,21, 1,15
87,2850410.958904104,29691.780821917808,21, 1,15,29691.780821917808,21, 1,15
207,8731433.587245049,90952.43320046926,21, 1,15,90952.43320046926,21, 1,15
543,184379590.2528068,812971.9510954174,21, 1,15,2756315.5342112879,21,24,15
687,0.0,0.0,21, 1,15,0.0,21, 1,15
725,165697942.86313195,682427.7370730304,21, 1,15,2223650.0462788625,21,24,60
1,CHICAGO MIDWAY AP ANN CLG .4% CONDNS DB=>MWB HVAC Sizing Pass 1,  41.78, -87.75,  -6.00, 186.00
4,1, 7
50,0.0,0.0,21, 1,15,0.0,21, 1,15
87,69415422.8001402,723077.3208347943,21, 1,15,723077.3208347943,21, 1,15
207,2969936.0573097507,27071.692069493423,21, 1,15,42456.757633955596,21,17,15
543,86391454.77873107,-158787.8785242931,21,12,45,1939903.6964993003,21,19,45
687,61064962.48331892,241386.8789681934,21, 5,30,1021117.1721888061,21,16,30
725,0.0,0.0,21, 1,15,0.0,21, 1,15
1,CHICAGO MIDWAY AP ANN CLG 1% CONDNS DB=>MWB HVAC Sizing Pass 1,  41.78, -87.75,  -6.00, 186.00
4,1, 7
50,0.0,0.0,21, 1,15,0.0,21, 1,15
87,69415422.8001402,723077.3208347943,21, 1,15,723077.3208347943,21, 1,15
207,2833227.5728789374,27071.692069493423,21, 1,15,38169.98099238371,21,17,60
543,80305767.18018784,-243669.03028105686,21,12,45,1872487.1953420728,21,19,45
687,55503174.34291573,193260.9815548172,21, 5,30,947088.0403855426,21,16,30
725,0.0,0.0,21, 1,15,0.0,21, 1,15
1,CHICAGO MIDWAY AP ANN HTG 99.6% CONDNS DB,  41.78, -87.75,  -6.00, 186.00
4,1, 1
50,0.0,0.0,21, 1,15,0.0,21, 1,15
87,2850410.958904104,29691.780821917808,21, 1,15,29691.780821917808,21, 1,15
207,8731433.587245049,90952.43320046926,21, 1,15,90952.43320046926,21, 1,15
543,214452292.07672308,1104281.3381034856,21, 1,30,3035112.233278893,21,22,30
687,0.0,0.0,21, 1,15,0.0,21, 1,15
725,195770659.7395079,973737.1240810987,21, 1,30,2543979.965082948,21,24,60
1,CHICAGO MIDWAY AP ANN HTG 99% CONDNS DB,  41.78, -87.75,  -6.00, 186.00
4,1, 1
50,0.0,0.0,21, 1,15,0.0,21, 1,15
87,2850410.958904104,29691.780821917808,21, 1,15,29691.780821917808,21, 1,15
207,8731433.587245049,90952.43320046926,21, 1,15,90952.43320046926,21, 1,15
543,184379356.5411695,812968.5676807965,21, 1,15,2756313.1569026855,21,24,15
687,0.0,0.0,21, 1,15,0.0,21, 1,15
725,165697709.15147687,682424.3536584096,21, 1,15,2223647.6839379009,21,24,60
1,CHICAGO MIDWAY AP ANN CLG .4% CONDNS DB=>MWB,  41.78, -87.75,  -6.00, 186.00
4,1, 7
50,0.0,0.0,21, 1,15,0.0,21, 1,15
87,69415422.8001402,723077.3208347943,21, 1,15,723077.3208347943,21, 1,15
207,2969936.0559472015,27071.692069493423,21, 1,15,42456.7581353817,21,17,15
543,86391454.73355884,-158787.87864411975,21,12,45,1939903.6956543206,21,19,45
687,61064962.439509067,241386.87855515874,21, 5,30,1021117.1752033912,21,16,30
725,0.0,0.0,21, 1,15,0.0,21, 1,15
1,CHICAGO MIDWAY AP ANN CLG 1% CONDNS DB=>MWB,  41.78, -87.75,  -6.00, 186.00
4,1, 7
50,0.0,0.0,21, 1,15,0.0,21, 1,15
87,69415422.8001402,723077.3208347943,21, 1,15,723077.3208347943,21, 1,15
207,2833227.5728521549,27071.692069493423,21, 1,15,38169.98099156067,21,17,60
543,80305767.17906702,-243669.0302943042,21,12,45,1872487.1953282508,21,19,45
687,55503174.341821718,193260.9815451725,21, 5,30,947088.0403741557,21,16,30
725,0.0,0.0,21, 1,15,0.0,21, 1,15
1,ANNUAL,  41.78, -87.75,  -6.00, 186.00
4,31, 1
50,219639774.06886206,14170.308004442802, 1, 1,15,226724.92807108485, 1,21,15
87,1457328276.8014413,85448.05030085355, 1, 4,15,1017289.0567353523, 1,20,15
207,216171393.69966985,16990.1082, 1, 1,15,90952.43320046926, 4,17,30
543,3590826632.7262098,-1687102.4570895034, 5,12,30,3369406.7830346615,30, 8,30
687,0.0,0.0, 1, 1,15,0.0, 1, 1,15
725,2484851643.731669,0.0, 1, 1,15,2903098.6369084694,30, 4,60
4,59, 2
50,198384312.06219838,14170.308004442802, 1, 1,15,226724.92807108485, 1,21,15
87,1316296508.0787192,85448.05030085355, 1, 4,15,1017289.0567353523, 1,20,15
207,143088455.3383264,16990.1082, 5,15,15,90952.43320046926, 1, 1,15
543,2665496227.3368165,-1907572.2908113267,16,12,45,4005098.6562081517, 3, 7,60
687,0.0,0.0, 1, 1,15,0.0, 1, 1,15
725,1846943658.942194,0.0, 5,14,60,3480244.739133633, 3, 4,30
4,90, 3
50,219639774.06886206,14170.308004442802, 1, 1,15,226724.92807108485, 1,21,15
87,1457328276.8014413,85448.05030085355, 1, 4,15,1017289.0567353523, 1,20,15
207,88377701.244695,16990.1082, 1,12,60,90952.43320046926, 1, 1,15
543,1422781586.763557,-1949395.0836917612, 8,13,15,2292930.3817037187, 1, 7,30
687,914033.2913064486,0.0, 1, 1,15,95788.91807522558,15,17,30
725,597096481.086866,0.0, 1,12,15,1839341.7830070388, 2, 4,60
4,120, 4
50,212554620.06664083,14170.308004442802, 1, 1,15,226724.92807108485, 1,21,15
87,1410317687.2272006,85448.05030085355, 1, 4,15,1017289.0567353523, 1,20,15
207,52641534.47997148,16990.1082, 1, 6,60,27071.692069493423, 1, 1,15
543,792690948.9704509,-1727806.7850266137,10,13,15,1645906.9935010493, 7,20,15
687,55778264.30573333,0.0, 1, 1,15,415658.4855022571, 7,18,15
725,4081436.1327582749,0.0, 1, 6,60,251104.39288091984, 1, 1,15
4,151, 5
50,219639774.06886206,14170.308004442802, 1, 1,15,226724.92807108485, 1,21,15
87,1457328276.8014413,85448.05030085355, 1, 4,15,1017289.0567353523, 1,20,15
207,64163561.375526648,16990.1082, 1, 1,15,27071.692069493423, 2,18,30
543,920602630.5965029,-1548788.3419903576, 2,13,15,1865735.2756255663, 9,20,15
687,324704083.3473987,0.0, 1, 1,15,679994.98114353, 9,18,15
725,0.0,0.0, 1, 1,15,0.0, 1, 1,15
4,181, 6
50,212554620.06664083,14170.308004442802, 1, 1,15,226724.92807108485, 1,21,15
87,1410317687.2272006,85448.05030085355, 1, 4,15,1017289.0567353523, 1,20,15
207,75881582.10858399,16990.1082, 1, 1,15,54044.65009793126,13,19,15
543,1706228804.8462125,-828804.2529245205, 6,13,30,2338763.927720519,14,20,15
687,1087951428.087228,0.0, 1, 1,15,1136385.4592476388,13,18,15
725,0.0,0.0, 1, 1,15,0.0, 1, 1,15
4,212, 7
50,219639774.06886206,14170.308004442802, 1, 1,15,226724.92807108485, 1,21,15
87,1457328276.8014413,85448.05030085355, 1, 4,15,1017289.0567353523, 1,20,15
207,86010631.90673314,16990.1082, 2, 1,45,80105.37660002386,24,18,15
543,2134920407.897532,-708523.2867618355, 2,13,15,2563520.6653924968,24,20,15
687,1573355141.7578233,0.0, 2, 1,45,1398466.8925369916,24,18,15
725,0.0,0.0, 1, 1,15,0.0, 1, 1,15
4,243, 8
50,219639774.06886206,14170.308004442802, 1, 1,15,226724.92807108485, 1,21,15
87,1457328276.8014413,85448.05030085355, 1, 4,15,1017289.0567353523, 1,20,15
207,85916929.9121892,16990.1082, 7, 4,60,59647.212247584626, 1,19,15
543,2051596142.9792898,-742835.4700586931, 7,13,15,2424474.128037922, 1,20,15
687,1495217912.4239686,0.0, 7, 4,60,1202930.7701647797, 1,19,15
725,0.0,0.0, 1, 1,15,0.0, 1, 1,15
4,273, 9
50,212554620.06664083,14170.308004442802, 1, 1,15,226724.92807108485, 1,21,15
87,1410317687.2272006,85448.05030085355, 1, 4,15,1017289.0567353523, 1,20,15
207,79322011.68816146,16990.1082, 2, 4,45,65432.306525420514, 6,17,15
543,1657686247.021461,-1005073.9391138833,23,13,15,2296923.751528997, 6,19,15
687,1160847176.2968283,0.0, 2, 4,45,1249267.029772391, 6,15,60
725,0.0,0.0, 1, 1,15,0.0, 1, 1,15
4,304,10
50,219639774.06886206,14170.308004442802, 1, 1,15,226724.92807108485, 1,21,15
87,1457328276.8014413,85448.05030085355, 1, 4,15,1017289.0567353523, 1,20,15
207,64191488.45297801,16990.1082, 1, 1,15,46300.94124195256, 4,17,15
543,1174258481.3410557,-1439987.2400692495, 9,13,15,2098771.541070708, 4,20,15
687,411959632.3486392,0.0, 1, 1,15,1024457.9098001544, 4,17,15
725,0.0,0.0, 1, 1,15,0.0, 1, 1,15
4,334,11
50,212554620.06664083,14170.308004442802, 1, 1,15,226724.92807108485, 1,21,15
87,1410317687.2272006,85448.05030085355, 1, 4,15,1017289.0567353523, 1,20,15
207,55550019.07589059,16990.1082, 1, 1,15,90952.43320046926,30, 4,45
543,680088668.7087767,-1496615.7140861538,21,12,45,1644959.8635193415, 9,20,15
687,88683523.61914897,0.0, 1, 1,15,487086.0406646478, 9,15,15
725,582098.9430110521,0.0, 1, 1,15,88053.62507426417,30, 5,60
4,365,12
50,219639774.06886206,14170.308004442802, 1, 1,15,226724.92807108485, 1,21,15
87,1457328276.8014413,85448.05030085355, 1, 4,15,1017289.0567353523, 1,20,15
207,148243260.32698048,16990.1082, 1, 1,15,90952.43320046926, 1, 4,60
543,2204776726.8108875,-1638337.6637952203, 1,12,30,2845599.4005699947,24, 8,15
687,0.0,0.0, 1, 1,15,0.0, 1, 1,15
725,1288425649.4264932,0.0, 1, 1,15,2383660.246033685,24, 4,60
End of Data
 Number of Records Written=         120
