Program Version,EnergyPlus, Version 9.5.0-de239b2e5f, YMD=2024.12.04 11:59
1,5,Environment Title[],Latitude[deg],Longitude[deg],Time Zone[],Elevation[m]
2,8,Day of Simulation[],Month[],Day of Month[],DST Indicator[1=yes 0=no],Hour[],StartMinute[],EndMinute[],DayType
3,5,Cumulative Day of Simulation[],Month[],Day of Month[],DST Indicator[1=yes 0=no],DayType  ! When Daily Meters Requested
4,2,Cumulative Days of Simulation[],Month[]  ! When Monthly Meters Requested
5,1,Cumulative Days of Simulation[] ! When Run Period Meters Requested
6,1,Calendar Year of Simulation[] ! When Annual Meters Requested
50,9,InteriorLights:Electricity [J] !Monthly [Value,Min,Day,Hour,Minute,Max,Day,Hour,Minute]
87,9,InteriorEquipment:Electricity [J] !Monthly [Value,Min,Day,Hour,Minute,Max,Day,Hour,Minute]
207,9,Fans:Electricity [J] !Monthly [Value,Min,Day,Hour,Minute,Max,Day,Hour,Minute]
725,9,Heating:Electricity [J] !Monthly [Value,Min,Day,Hour,Minute,Max,Day,Hour,Minute]
687,9,Cooling:Electricity [J] !Monthly [Value,Min,Day,Hour,Minute,Max,Day,Hour,Minute]
543,9,ElectricityNet:Facility [J] !Monthly [Value,Min,Day,Hour,Minute,Max,Day,Hour,Minute]
End of Data Dictionary
1,CHICAGO MIDWAY AP ANN HTG 99.6% CONDNS DB HVAC Sizing Pass 1,  41.78, -87.75,  -6.00, 186.00
4,1, 1
50,0.0,0.0,21, 1,15,0.0,21, 1,15
87,2850410.958904104,29691.780821917808,21, 1,15,29691.780821917808,21, 1,15
207,17942937.934612726,186781.71727992415,21, 1,15,189754.98621492415,21, 7,15
543,983422000.5923486,9115695.868276075,21, 1,15,11050996.366260268,21,24,30
687,0.0,0.0,21, 1,15,0.0,21, 1,15
725,955528865.0672016,8889322.370174233,21, 1,15,10417220.31417878,21,24,60
1,CHICAGO MIDWAY AP ANN HTG 99% CONDNS DB HVAC Sizing Pass 1,  41.78, -87.75,  -6.00, 186.00
4,1, 1
50,0.0,0.0,21, 1,15,0.0,21, 1,15
87,2850410.958904104,29691.780821917808,21, 1,15,29691.780821917808,21, 1,15
207,17942937.934612726,186781.71727992415,21, 1,15,189754.98621492415,21, 7,15
543,854970313.9678719,7788475.770260347,21, 1,15,9705874.842257316,21,24,30
687,0.0,0.0,21, 1,15,0.0,21, 1,15
725,827077178.4427251,7562102.272158505,21, 1,15,9071957.451861091,21,24,45
1,CHICAGO MIDWAY AP ANN CLG .4% CONDNS DB=>MWB HVAC Sizing Pass 1,  41.78, -87.75,  -6.00, 186.00
4,1, 7
50,0.0,0.0,21, 1,15,0.0,21, 1,15
87,69415422.8001402,723077.3208347943,21, 1,15,723077.3208347943,21, 1,15
207,2456020.3068840575,25459.65865775063,21, 1,15,28432.92759275063,21, 7,15
543,106981568.23571527,240110.09405851004,21,12,30,2344329.69224111,21,17,60
687,82168981.27467457,152205.4036841994,21, 5,30,1561984.9080662323,21,16,15
725,0.0,0.0,21, 1,15,0.0,21, 1,15
1,CHICAGO MIDWAY AP ANN CLG 1% CONDNS DB=>MWB HVAC Sizing Pass 1,  41.78, -87.75,  -6.00, 186.00
4,1, 7
50,0.0,0.0,21, 1,15,0.0,21, 1,15
87,69415422.8001402,723077.3208347943,21, 1,15,723077.3208347943,21, 1,15
207,2456020.3068840575,25459.65865775063,21, 1,15,28432.92759275063,21, 7,15
543,93863068.79910898,69111.2583286927,21,12,30,2176937.2387483038,21,17,60
687,69437677.74788113,27536.011015871027,21, 5,30,1388887.0046116734,21,16,15
725,0.0,0.0,21, 1,15,0.0,21, 1,15
1,CHICAGO MIDWAY AP ANN HTG 99.6% CONDNS DB,  41.78, -87.75,  -6.00, 186.00
4,1, 1
50,0.0,0.0,21, 1,15,0.0,21, 1,15
87,2850410.958904104,29691.780821917808,21, 1,15,29691.780821917808,21, 1,15
207,17942937.934612726,186781.71727992415,21, 1,15,189754.98621492415,21, 7,15
543,983679783.6315115,9118727.378508982,21, 1,15,11053544.123479912,21,24,30
687,0.0,0.0,21, 1,15,0.0,21, 1,15
725,955786648.1063645,8892353.88040714,21, 1,15,10419768.335600049,21,24,60
1,CHICAGO MIDWAY AP ANN HTG 99% CONDNS DB,  41.78, -87.75,  -6.00, 186.00
4,1, 1
50,0.0,0.0,21, 1,15,0.0,21, 1,15
87,2850410.958904104,29691.780821917808,21, 1,15,29691.780821917808,21, 1,15
207,17942937.934612726,186781.71727992415,21, 1,15,189754.98621492415,21, 7,15
543,854970070.9506775,7788472.915257234,21, 1,15,9705872.445141012,21,24,30
687,0.0,0.0,21, 1,15,0.0,21, 1,15
725,827076935.4255308,7562099.4171553929,21, 1,15,9071955.0546011,21,24,45
1,CHICAGO MIDWAY AP ANN CLG .4% CONDNS DB=>MWB,  41.78, -87.75,  -6.00, 186.00
4,1, 7
50,0.0,0.0,21, 1,15,0.0,21, 1,15
87,69415422.8001402,723077.3208347943,21, 1,15,723077.3208347943,21, 1,15
207,2456020.3068840575,25459.65865775063,21, 1,15,28432.92759275063,21, 7,15
543,106981568.1925981,240110.093600509,21,12,30,2344329.691854805,21,17,60
687,82168981.23155739,152205.40301174733,21, 5,30,1561984.9076618793,21,16,15
725,0.0,0.0,21, 1,15,0.0,21, 1,15
1,CHICAGO MIDWAY AP ANN CLG 1% CONDNS DB=>MWB,  41.78, -87.75,  -6.00, 186.00
4,1, 7
50,0.0,0.0,21, 1,15,0.0,21, 1,15
87,69415422.8001402,723077.3208347943,21, 1,15,723077.3208347943,21, 1,15
207,2456020.3068840575,25459.65865775063,21, 1,15,28432.92759275063,21, 7,15
543,93863068.80397466,69111.25836387296,21,12,30,2176937.238808489,21,17,60
687,69437677.7527468,27536.011087359057,21, 5,30,1388887.0046674365,21,16,15
725,0.0,0.0,21, 1,15,0.0,21, 1,15
1,ANNUAL,  41.78, -87.75,  -6.00, 186.00
4,31, 1
50,219639774.06886206,14170.308004442802, 1, 1,15,226724.92807108485, 1,21,15
87,1457328276.8014413,85448.05030085355, 1, 4,15,1017289.0567353523, 1,20,15
207,464648233.7370893,0.0, 1, 1,15,189754.98621492415, 1, 7,15
543,15801999657.143818,-268738.0463615899, 2,11,30,11884110.076837583,30, 8,30
687,0.0,0.0, 1, 1,15,0.0, 1, 1,15
725,14447536659.401703,0.0, 1, 1,15,11248480.087120107,30, 5,60
4,59, 2
50,198384312.06219838,14170.308004442802, 1, 1,15,226724.92807108485, 1,21,15
87,1316296508.0787192,85448.05030085355, 1, 4,15,1017289.0567353523, 1,20,15
207,280422904.5359861,0.0,19,15,45,189754.98621492415, 1, 7,15
543,11600850172.60523,-1791317.672853396,24,13,15,15510019.915464145, 3, 7,60
687,0.0,0.0, 1, 1,15,0.0, 1, 1,15
725,10644963155.012948,0.0,19,15,45,14747752.300447749, 3, 7,60
4,90, 3
50,219639774.06886206,14170.308004442802, 1, 1,15,226724.92807108485, 1,21,15
87,1457328276.8014413,85448.05030085355, 1, 4,15,1017289.0567353523, 1,20,15
207,164256612.3963311,0.0,11,11,60,189754.98621492415, 1, 7,15
543,5982384101.065196,-1717309.5449208765,11,13,15,7866524.926571097, 1, 7,45
687,0.0,0.0, 1, 1,15,0.0, 1, 1,15
725,5081734117.528183,0.0,11,11,60,7199715.787529787, 1, 7,45
4,120, 4
50,212554620.06664083,14170.308004442802, 1, 1,15,226724.92807108485, 1,21,15
87,1410317687.2272006,85448.05030085355, 1, 4,15,1017289.0567353523, 1,20,15
207,37129860.34053551,0.0, 1,12,60,28432.92759275063, 1, 7,15
543,1609628988.703518,-1744796.8932266138,10,13,15,2588548.9683141328,10, 6,15
687,0.0,0.0, 1, 1,15,0.0, 1, 1,15
725,892309414.3110024,0.0, 1,12,60,2358769.869905629,17, 4,60
4,151, 5
50,219639774.06886206,14170.308004442802, 1, 1,15,226724.92807108485, 1,21,15
87,1457328276.8014413,85448.05030085355, 1, 4,15,1017289.0567353523, 1,20,15
207,14402989.828418142,0.0, 1, 1,15,28432.92759275063, 1,19,15
543,737174022.5818933,-1565778.4501903575, 2,13,15,2298089.0260940964, 2, 6,15
687,22051223.199597315,0.0, 1, 1,15,490520.9404342961,27,19,15
725,168984823.68029998,0.0, 1, 1,15,2001155.5299733314, 2, 5,60
4,181, 6
50,212554620.06664083,14170.308004442802, 1, 1,15,226724.92807108485, 1,21,15
87,1410317687.2272006,85448.05030085355, 1, 4,15,1017289.0567353523, 1,20,15
207,48481065.292605217,0.0, 1, 1,15,28432.92759275063, 1, 7,15
543,1801094957.154744,-1205723.5820191305, 8,13,15,2851746.5802384,13,19,15
687,1191050519.9255722,0.0, 1, 1,15,1797009.5173995228,14,15,60
725,19167577.286170588,0.0, 1, 1,15,316572.38814780415, 5, 5,60
4,212, 7
50,219639774.06886206,14170.308004442802, 1, 1,15,226724.92807108485, 1,21,15
87,1457328276.8014413,85448.05030085355, 1, 4,15,1017289.0567353523, 1,20,15
207,70190806.07975717,0.0, 1, 4,45,36989.51818628911,24,15,60
543,2520981459.489998,-721422.6466021348, 2,13,15,3513613.1686230965,24,19,15
687,1975236019.1772688,0.0, 1, 4,45,2615363.383393578,24,15,60
725,0.0,0.0, 1, 1,15,0.0, 1, 1,15
4,243, 8
50,219639774.06886206,14170.308004442802, 1, 1,15,226724.92807108485, 1,21,15
87,1457328276.8014413,85448.05030085355, 1, 4,15,1017289.0567353523, 1,20,15
207,69570704.81995957,0.0, 3, 4,60,28432.92759275063, 1, 7,15
543,2343961157.3517377,-708143.9412845048, 7,13,15,3120358.9155585325, 1,19,15
687,1803929151.88864,0.0, 3, 4,60,2041621.6743924847, 1,18,15
725,0.0,0.0, 1, 1,15,0.0, 1, 1,15
4,273, 9
50,212554620.06664083,14170.308004442802, 1, 1,15,226724.92807108485, 1,21,15
87,1410317687.2272006,85448.05030085355, 1, 4,15,1017289.0567353523, 1,20,15
207,52606152.96123891,0.0, 1, 4,30,28432.92759275063, 1, 7,15
543,1637206950.4698754,-1278707.499471252,23,12,30,2717065.803018615, 6,19,15
687,1167083738.472169,0.0, 1, 4,30,1962621.108518232, 6,17,15
725,0.0,0.0, 1, 1,15,0.0, 1, 1,15
4,304,10
50,219639774.06886206,14170.308004442802, 1, 1,15,226724.92807108485, 1,21,15
87,1457328276.8014413,85448.05030085355, 1, 4,15,1017289.0567353523, 1,20,15
207,30313752.905555965,0.0, 1, 1,15,28432.92759275063, 1,19,15
543,1428346923.507083,-1582418.5616191759, 9,13,15,2555428.26204682,25, 6,60
687,279455243.06716158,0.0, 1, 1,15,1489817.7348482379, 4,17,15
725,420470566.99493959,0.0, 1, 1,15,2078542.2551846784,25, 6,60
4,334,11
50,212554620.06664083,14170.308004442802, 1, 1,15,226724.92807108485, 1,21,15
87,1410317687.2272006,85448.05030085355, 1, 4,15,1017289.0567353523, 1,20,15
207,65345597.35132985,0.0, 1, 1,15,189754.98621492415, 3, 7,15
543,2500410369.1148645,-1513605.8222861535,21,12,45,4695412.511331248,30, 7,60
687,0.0,0.0, 1, 1,15,0.0, 1, 1,15
725,1899791744.6928082,0.0, 1, 1,15,3970961.634876043,30, 3,60
4,365,12
50,219639774.06886206,14170.308004442802, 1, 1,15,226724.92807108485, 1,21,15
87,1457328276.8014413,85448.05030085355, 1, 4,15,1017289.0567353523, 1,20,15
207,316275267.0118356,0.0, 9,12,30,189754.98621492415, 1, 7,15
543,10813181714.52294,-1531564.7074136129,31,13,15,11095432.675878842,19, 8,15
687,0.0,0.0, 1, 1,15,0.0, 1, 1,15
725,9728798630.453648,0.0, 9,12,30,10275404.395624187,19, 8,15
End of Data
 Number of Records Written=         120
