Program Version,EnergyPlus, Version 9.5.0-de239b2e5f, YMD=2024.12.04 11:59
1,5,Environment Title[],Latitude[deg],Longitude[deg],Time Zone[],Elevation[m]
2,8,Day of Simulation[],Month[],Day of Month[],DST Indicator[1=yes 0=no],Hour[],StartMinute[],EndMinute[],DayType
3,5,Cumulative Day of Simulation[],Month[],Day of Month[],DST Indicator[1=yes 0=no],DayType  ! When Daily Meters Requested
4,2,Cumulative Days of Simulation[],Month[]  ! When Monthly Meters Requested
5,1,Cumulative Days of Simulation[] ! When Run Period Meters Requested
6,1,Calendar Year of Simulation[] ! When Annual Meters Requested
50,9,InteriorLights:Electricity [J] !Monthly [Value,Min,Day,Hour,Minute,Max,Day,Hour,Minute]
87,9,InteriorEquipment:Electricity [J] !Monthly [Value,Min,Day,Hour,Minute,Max,Day,Hour,Minute]
207,9,Fans:Electricity [J] !Monthly [Value,Min,Day,Hour,Minute,Max,Day,Hour,Minute]
725,9,Heating:Electricity [J] !Monthly [Value,Min,Day,Hour,Minute,Max,Day,Hour,Minute]
687,9,Cooling:Electricity [J] !Monthly [Value,Min,Day,Hour,Minute,Max,Day,Hour,Minute]
543,9,ElectricityNet:Facility [J] !Monthly [Value,Min,Day,Hour,Minute,Max,Day,Hour,Minute]
End of Data Dictionary
1,CHICAGO MIDWAY AP ANN HTG 99.6% CONDNS DB HVAC Sizing Pass 1,  41.78, -87.75,  -6.00, 186.00
4,1, 1
50,0.0,0.0,21, 1,15,0.0,21, 1,15
87,2850410.958904104,29691.780821917808,21, 1,15,29691.780821917808,21, 1,15
207,10128889.526250262,105509.26589844049,21, 1,15,105509.26589844049,21, 1,15
543,351805485.86252436,2447282.9711258749,21, 1,15,4496976.783095455,21,24,15
687,0.0,0.0,21, 1,15,0.0,21, 1,15
725,331726406.272423,2302181.9244055168,21, 1,15,3948940.33296228,21,24,60
1,CHICAGO MIDWAY AP ANN HTG 99% CONDNS DB HVAC Sizing Pass 1,  41.78, -87.75,  -6.00, 186.00
4,1, 1
50,0.0,0.0,21, 1,15,0.0,21, 1,15
87,2850410.958904104,29691.780821917808,21, 1,15,29691.780821917808,21, 1,15
207,10128889.526250262,105509.26589844049,21, 1,15,105509.26589844049,21, 1,15
543,309957192.3673625,2023275.364988674,21, 1,15,4057665.451765882,21,24,15
687,0.0,0.0,21, 1,15,0.0,21, 1,15
725,289878078.73848846,1878174.3182683152,21, 1,15,3509489.1104369929,21,24,60
1,CHICAGO MIDWAY AP ANN CLG .4% CONDNS DB=>MWB HVAC Sizing Pass 1,  41.78, -87.75,  -6.00, 186.00
4,1, 7
50,0.0,0.0,21, 1,15,0.0,21, 1,15
87,69415422.8001402,723077.3208347943,21, 1,15,723077.3208347943,21, 1,15
207,3205737.5258332549,29055.89050725007,21, 1,15,47668.228906040975,21,17,60
543,92945940.48403543,-41585.780883962594,21,12,30,2084554.080013101,21,19,45
687,67383646.50104177,216171.76004614408,21, 5,30,1179669.083586164,21,16,30
725,0.0,0.0,21, 1,15,0.0,21, 1,15
1,CHICAGO MIDWAY AP ANN CLG 1% CONDNS DB=>MWB HVAC Sizing Pass 1,  41.78, -87.75,  -6.00, 186.00
4,1, 7
50,0.0,0.0,21, 1,15,0.0,21, 1,15
87,69415422.8001402,723077.3208347943,21, 1,15,723077.3208347943,21, 1,15
207,3035452.1687865268,29055.89050725007,21, 1,15,41877.45926822502,21,17,60
543,85247516.54103147,-145862.67349168904,21,12,45,1997618.8691887893,21,19,45
687,60242699.03846713,147883.33888738339,21, 5,30,1085454.2043738506,21,16,30
725,0.0,0.0,21, 1,15,0.0,21, 1,15
1,CHICAGO MIDWAY AP ANN HTG 99.6% CONDNS DB,  41.78, -87.75,  -6.00, 186.00
4,1, 1
50,0.0,0.0,21, 1,15,0.0,21, 1,15
87,2850410.958904104,29691.780821917808,21, 1,15,29691.780821917808,21, 1,15
207,10128889.526250262,105509.26589844049,21, 1,15,105509.26589844049,21, 1,15
543,352046043.46109208,2450137.2886748097,21, 1,15,4499285.030346067,21,24,15
687,0.0,0.0,21, 1,15,0.0,21, 1,15
725,331966963.9538129,2305036.2419544516,21, 1,15,3951255.545324996,21,24,60
1,CHICAGO MIDWAY AP ANN HTG 99% CONDNS DB,  41.78, -87.75,  -6.00, 186.00
4,1, 1
50,0.0,0.0,21, 1,15,0.0,21, 1,15
87,2850410.958904104,29691.780821917808,21, 1,15,29691.780821917808,21, 1,15
207,10128889.526250262,105509.26589844049,21, 1,15,105509.26589844049,21, 1,15
543,309956943.99936309,2023272.4078293204,21, 1,15,4057663.0581820008,21,24,15
687,0.0,0.0,21, 1,15,0.0,21, 1,15
725,289877830.370472,1878171.3611089616,21, 1,15,3509486.712581068,21,24,60
1,CHICAGO MIDWAY AP ANN CLG .4% CONDNS DB=>MWB,  41.78, -87.75,  -6.00, 186.00
4,1, 7
50,0.0,0.0,21, 1,15,0.0,21, 1,15
87,69415422.8001402,723077.3208347943,21, 1,15,723077.3208347943,21, 1,15
207,3205737.5250687545,29055.89050725007,21, 1,15,47668.228882072566,21,17,60
543,92945940.45218289,-41585.78100362613,21,12,30,2084554.0796724673,21,19,45
687,67383646.46995366,216171.75970955907,21, 5,30,1179669.0832721997,21,16,30
725,0.0,0.0,21, 1,15,0.0,21, 1,15
1,CHICAGO MIDWAY AP ANN CLG 1% CONDNS DB=>MWB,  41.78, -87.75,  -6.00, 186.00
4,1, 7
50,0.0,0.0,21, 1,15,0.0,21, 1,15
87,69415422.8001402,723077.3208347943,21, 1,15,723077.3208347943,21, 1,15
207,3035452.16877546,29055.89050725007,21, 1,15,41877.45926802652,21,17,60
543,85247516.54017888,-145862.6735036766,21,12,45,1997618.8691785562,21,19,45
687,60242699.03762565,147883.3388914274,21, 5,30,1085454.2043674575,21,16,30
725,0.0,0.0,21, 1,15,0.0,21, 1,15
1,ANNUAL,  41.78, -87.75,  -6.00, 186.00
4,31, 1
50,219639774.06886206,14170.308004442802, 1, 1,15,226724.92807108485, 1,21,15
87,1457328276.8014413,85448.05030085355, 1, 4,15,1017289.0567353523, 1,20,15
207,265271428.89000819,16990.1082, 1, 1,15,105509.26589844049, 3,23,60
543,5996071824.224327,-1304361.22258401,12,14,30,4870946.516429986,30, 8,30
687,0.0,0.0, 1, 1,15,0.0, 1, 1,15
725,4840992652.55222,0.0, 1, 1,15,4328102.73244007,30, 4,60
4,59, 2
50,198384312.06219838,14170.308004442802, 1, 1,15,226724.92807108485, 1,21,15
87,1316296508.0787192,85448.05030085355, 1, 4,15,1017289.0567353523, 1,20,15
207,174350446.00439245,16990.1082, 8,15,15,105509.26589844049, 1, 1,15
543,4366087846.682614,-1780900.6799391327,19,13,15,5776951.742302948, 3, 7,60
687,0.0,0.0, 1, 1,15,0.0, 1, 1,15
725,3516273287.621932,0.0, 8,15,15,5208418.022247505, 3, 4,30
4,90, 3
50,219639774.06886206,14170.308004442802, 1, 1,15,226724.92807108485, 1,21,15
87,1457328276.8014413,85448.05030085355, 1, 4,15,1017289.0567353523, 1,20,15
207,118947154.81307528,16990.1082, 2,16,45,105509.26589844049, 1, 1,15
543,2491549694.149691,-1774478.987964011, 3,14,15,3495891.714212864, 2, 7,15
687,0.0,0.0, 1, 1,15,0.0, 1, 1,15
725,1636209168.195903,0.0, 2,15,30,3035694.7835478174, 2, 4,60
4,120, 4
50,212554620.06664083,14170.308004442802, 1, 1,15,226724.92807108485, 1,21,15
87,1410317687.2272006,85448.05030085355, 1, 4,15,1017289.0567353523, 1,20,15
207,54785541.02940477,16990.1082, 1,10,45,29055.89050725007, 1, 1,15
543,862312670.4803727,-1727806.7850266137,10,13,15,1562105.3746217509, 7,20,15
687,13299689.782905866,0.0, 1, 1,15,321404.9444561568, 4,18,15
725,114037725.61607819,0.0, 1,10,45,1080535.8567170965,17, 4,60
4,151, 5
50,219639774.06886206,14170.308004442802, 1, 1,15,226724.92807108485, 1,21,15
87,1457328276.8014413,85448.05030085355, 1, 4,15,1017289.0567353523, 1,20,15
207,59648466.05017492,16990.1082, 1, 1,15,29055.89050725007, 3, 5,45
543,754706760.3784206,-1548788.3419903576, 2,13,15,1822851.9189049504, 9,20,15
687,163250985.94268687,0.0, 1, 1,15,622856.2687530142, 9,18,15
725,72322.51198305666,0.0, 1, 1,15,64051.594092294676, 3, 5,45
4,181, 6
50,212554620.06664083,14170.308004442802, 1, 1,15,226724.92807108485, 1,21,15
87,1410317687.2272006,85448.05030085355, 1, 4,15,1017289.0567353523, 1,20,15
207,75822939.22544654,16990.1082, 1, 1,15,57736.58329525616,13,18,15
543,1681761949.0886727,-899278.8589439157, 8,12,30,2460565.448897559,14,20,15
687,1063543215.2128236,0.0, 1, 1,15,1282875.466802934,13,18,15
725,0.0,0.0, 1, 1,15,0.0, 1, 1,15
4,212, 7
50,219639774.06886206,14170.308004442802, 1, 1,15,226724.92807108485, 1,21,15
87,1457328276.8014413,85448.05030085355, 1, 4,15,1017289.0567353523, 1,20,15
207,89892270.8844153,16990.1082, 1,24,45,95580.18293752174,24,18,15
543,2192983448.9658925,-715914.3430040896, 2,13,15,2797474.5748717186,24,19,15
687,1627536543.8484996,0.0, 1,24,45,1637574.861624757,24,18,15
725,0.0,0.0, 1, 1,15,0.0, 1, 1,15
4,243, 8
50,219639774.06886206,14170.308004442802, 1, 1,15,226724.92807108485, 1,21,15
87,1457328276.8014413,85448.05030085355, 1, 4,15,1017289.0567353523, 1,20,15
207,89449259.13651805,16990.1082, 6, 3,45,65351.35269258348, 1,18,15
543,2081299452.3782066,-725495.3009100352, 7,13,15,2567512.7148420519, 1,20,15
687,1521388892.5985537,0.0, 6, 3,45,1368113.2191501994, 1,18,15
725,0.0,0.0, 1, 1,15,0.0, 1, 1,15
4,273, 9
50,212554620.06664083,14170.308004442802, 1, 1,15,226724.92807108485, 1,21,15
87,1410317687.2272006,85448.05030085355, 1, 4,15,1017289.0567353523, 1,20,15
207,80091797.17323207,16990.1082, 1, 4,60,74235.04975185018, 6,17,15
543,1610879410.2595568,-1100262.3716375028,23,12,30,2454846.624144511, 6,19,15
687,1113270554.049852,0.0, 1, 4,60,1436116.5849019576, 6,15,60
725,0.0,0.0, 1, 1,15,0.0, 1, 1,15
4,304,10
50,219639774.06886206,14170.308004442802, 1, 1,15,226724.92807108485, 1,21,15
87,1457328276.8014413,85448.05030085355, 1, 4,15,1017289.0567353523, 1,20,15
207,61631113.39386381,16990.1082, 1, 1,15,49384.204501701264, 4,17,15
543,1090413187.3669444,-1565428.453419176, 9,13,15,2168703.978521341, 4,20,15
687,321444746.41906878,0.0, 1, 1,15,1157511.5292847809, 4,17,15
725,9229967.014582074,0.0, 1, 1,15,419501.99893664088,28, 6,60
4,334,11
50,212554620.06664083,14170.308004442802, 1, 1,15,226724.92807108485, 1,21,15
87,1410317687.2272006,85448.05030085355, 1, 4,15,1017289.0567353523, 1,20,15
207,64249114.91799572,16990.1082, 1, 1,15,105509.26589844049, 3, 4,60
543,867818842.8717642,-1496615.7140861538,21,12,45,2334373.0938864487,30, 8,15
687,12794820.547089944,0.0, 1, 1,15,345918.81977052279,10,14,30
725,255501880.33595485,0.0, 1, 1,15,1839083.037067376,30, 4,60
4,365,12
50,219639774.06886206,14170.308004442802, 1, 1,15,226724.92807108485, 1,21,15
87,1457328276.8014413,85448.05030085355, 1, 4,15,1017289.0567353523, 1,20,15
207,193746041.81025277,16990.1082, 1,13,30,105509.26589844049, 1, 1,15
543,4119999305.821378,-1596379.9053273078, 1,13,15,4293588.664503037,24, 8,15
687,0.0,0.0, 1, 1,15,0.0, 1, 1,15
725,3158145446.9537155,0.0, 1,12,60,3771486.970490912,24, 4,60
End of Data
 Number of Records Written=         120
