Program Version,EnergyPlus, Version 9.5.0-de239b2e5f, YMD=2024.12.04 11:57
1,5,Environment Title[],Latitude[deg],Longitude[deg],Time Zone[],Elevation[m]
2,8,Day of Simulation[],Month[],Day of Month[],DST Indicator[1=yes 0=no],Hour[],StartMinute[],EndMinute[],DayType
3,5,Cumulative Day of Simulation[],Month[],Day of Month[],DST Indicator[1=yes 0=no],DayType  ! When Daily Meters Requested
4,2,Cumulative Days of Simulation[],Month[]  ! When Monthly Meters Requested
5,1,Cumulative Days of Simulation[] ! When Run Period Meters Requested
6,1,Calendar Year of Simulation[] ! When Annual Meters Requested
51,9,InteriorLights:Electricity [J] !Monthly [Value,Min,Day,Hour,Minute,Max,Day,Hour,Minute]
88,9,InteriorEquipment:Electricity [J] !Monthly [Value,Min,Day,Hour,Minute,Max,Day,Hour,Minute]
208,9,Fans:Electricity [J] !Monthly [Value,Min,Day,Hour,Minute,Max,Day,Hour,Minute]
730,9,Heating:Electricity [J] !Monthly [Value,Min,Day,Hour,Minute,Max,Day,Hour,Minute]
692,9,Cooling:Electricity [J] !Monthly [Value,Min,Day,Hour,Minute,Max,Day,Hour,Minute]
545,9,ElectricityNet:Facility [J] !Monthly [Value,Min,Day,Hour,Minute,Max,Day,Hour,Minute]
End of Data Dictionary
1,CHICAGO MIDWAY AP ANN HTG 99.6% CONDNS DB HVAC Sizing Pass 1,  41.78, -87.75,  -6.00, 186.00
4,1, 1
51,0.0,0.0,21, 1,15,0.0,21, 1,15
88,2850410.958904104,29691.780821917808,21, 1,15,29691.780821917808,21, 1,15
208,7983745.988911633,83164.02071782961,21, 1,15,83164.02071782961,21, 1,15
545,145552298.8779272,484539.81874671069,21, 1,15,1985654.5970128184,21,24,60
692,0.0,0.0,21, 1,15,0.0,21, 1,15
730,133801941.93011143,361784.0172069633,21, 1,15,1862898.7954730704,21,24,60
1,CHICAGO MIDWAY AP ANN HTG 99% CONDNS DB HVAC Sizing Pass 1,  41.78, -87.75,  -6.00, 186.00
4,1, 1
51,0.0,0.0,21, 1,15,0.0,21, 1,15
88,2850410.958904104,29691.780821917808,21, 1,15,29691.780821917808,21, 1,15
208,7983745.988911633,83164.02071782961,21, 1,15,83164.02071782961,21, 1,15
545,119433857.14204329,219135.3319325979,21, 1,15,1708252.3908388245,21,24,60
692,0.0,0.0,21, 1,15,0.0,21, 1,15
730,107683500.19422753,96379.53039285046,21, 1,15,1585496.5892990768,21,24,60
1,CHICAGO MIDWAY AP ANN CLG .4% CONDNS DB=>MWB HVAC Sizing Pass 1,  41.78, -87.75,  -6.00, 186.00
4,1, 7
51,0.0,0.0,21, 1,15,0.0,21, 1,15
88,69415422.8001402,723077.3208347943,21, 1,15,723077.3208347943,21, 1,15
208,543683.4624000009,5663.3694000000009,21, 1,15,5663.3694000000009,21, 1,15
545,17953363.287158073,-1059821.1297539813,21,12,60,738640.6902347944,21, 1,15
692,0.0,0.0,21, 1,15,0.0,21, 1,15
730,0.0,0.0,21, 1,15,0.0,21, 1,15
1,CHICAGO MIDWAY AP ANN CLG 1% CONDNS DB=>MWB HVAC Sizing Pass 1,  41.78, -87.75,  -6.00, 186.00
4,1, 7
51,0.0,0.0,21, 1,15,0.0,21, 1,15
88,69415422.8001402,723077.3208347943,21, 1,15,723077.3208347943,21, 1,15
208,543683.4624000009,5663.3694000000009,21, 1,15,5663.3694000000009,21, 1,15
545,17566167.519980648,-1073263.123225123,21,12,60,738640.6902347944,21, 1,15
692,0.0,0.0,21, 1,15,0.0,21, 1,15
730,0.0,0.0,21, 1,15,0.0,21, 1,15
1,CHICAGO MIDWAY AP ANN HTG 99.6% CONDNS DB,  41.78, -87.75,  -6.00, 186.00
4,1, 1
51,0.0,0.0,21, 1,15,0.0,21, 1,15
88,2850410.958904104,29691.780821917808,21, 1,15,29691.780821917808,21, 1,15
208,7983745.988911633,83164.02071782961,21, 1,15,83164.02071782961,21, 1,15
545,145782433.69924758,487274.3713416377,21, 1,15,1987923.8476650487,21,24,60
692,0.0,0.0,21, 1,15,0.0,21, 1,15
730,134032076.75143178,364518.5698018903,21, 1,15,1865168.0461253008,21,24,60
1,CHICAGO MIDWAY AP ANN HTG 99% CONDNS DB,  41.78, -87.75,  -6.00, 186.00
4,1, 1
51,0.0,0.0,21, 1,15,0.0,21, 1,15
88,2850410.958904104,29691.780821917808,21, 1,15,29691.780821917808,21, 1,15
208,7983745.988911633,83164.02071782961,21, 1,15,83164.02071782961,21, 1,15
545,119433618.74453563,219132.44542439134,21, 1,15,1708250.0331126776,21,24,60
692,0.0,0.0,21, 1,15,0.0,21, 1,15
730,107683261.79671984,96376.64388464389,21, 1,15,1585494.2315729298,21,24,60
1,CHICAGO MIDWAY AP ANN CLG .4% CONDNS DB=>MWB,  41.78, -87.75,  -6.00, 186.00
4,1, 7
51,0.0,0.0,21, 1,15,0.0,21, 1,15
88,69415422.8001402,723077.3208347943,21, 1,15,723077.3208347943,21, 1,15
208,543683.4624000009,5663.3694000000009,21, 1,15,5663.3694000000009,21, 1,15
545,17953363.287158073,-1059821.1297539813,21,12,60,738640.6902347944,21, 1,15
692,0.0,0.0,21, 1,15,0.0,21, 1,15
730,0.0,0.0,21, 1,15,0.0,21, 1,15
1,CHICAGO MIDWAY AP ANN CLG 1% CONDNS DB=>MWB,  41.78, -87.75,  -6.00, 186.00
4,1, 7
51,0.0,0.0,21, 1,15,0.0,21, 1,15
88,69415422.8001402,723077.3208347943,21, 1,15,723077.3208347943,21, 1,15
208,543683.4624000009,5663.3694000000009,21, 1,15,5663.3694000000009,21, 1,15
545,17566167.519980648,-1073263.123225123,21,12,60,738640.6902347944,21, 1,15
692,0.0,0.0,21, 1,15,0.0,21, 1,15
730,0.0,0.0,21, 1,15,0.0,21, 1,15
1,ANNUAL,  41.78, -87.75,  -6.00, 186.00
4,31, 1
51,0.0,0.0, 1, 1,15,0.0, 1, 1,15
88,88362739.72603122,29691.780821917808, 1, 1,15,29691.780821917808, 1, 1,15
208,157629672.09313039,5663.3694,27, 1,15,83164.02071782961, 3,24,45
545,1204643411.2834454,-2506973.372062307,30,12,60,2045784.9640439458, 6, 8,15
692,0.0,0.0, 1, 1,15,0.0, 1, 1,15
730,1842854523.922699,0.0, 1, 1,15,1923029.1625041983, 6, 8,15
4,59, 2
51,0.0,0.0, 1, 1,15,0.0, 1, 1,15
88,79811506.84931842,29691.780821917808, 1, 1,15,29691.780821917808, 1, 1,15
208,109670798.64688465,5663.3694000000009, 1, 1,15,83164.02071782961, 3, 1,30
545,1432968406.4411019,-2574838.5496653595, 2,12,60,4218029.33839929, 3, 1,15
692,0.0,0.0, 1, 1,15,0.0, 1, 1,15
730,2170096986.1587355,0.0, 1, 1,15,4095273.5368595428, 3, 1,15
4,90, 3
51,0.0,0.0, 1, 1,15,0.0, 1, 1,15
88,88362739.72603122,29691.780821917808, 1, 1,15,29691.780821917808, 1, 1,15
208,66604937.31155912,5663.3694000000009, 1,12,30,83164.02071782961, 1, 1,15
545,5482446.7709604599,-2522567.8524741849, 8,12,45,1863091.3598718767, 1, 7,30
692,0.0,0.0, 1, 1,15,0.0, 1, 1,15
730,887847289.5346164,0.0, 1,11,15,1744326.3756729139, 1, 7,45
4,120, 4
51,0.0,0.0, 1, 1,15,0.0, 1, 1,15
88,85512328.76712695,29691.780821917808, 1, 1,15,29691.780821917808, 1, 1,15
208,18381312.368067076,5663.3694000000009, 1,10,60,16227.25197394704, 1, 1,15
545,-903969515.9257795,-2279965.17054967,10,12,60,527331.3093497127,19, 6,30
692,616921.9765766313,0.0, 1, 1,15,77187.1433725877,30,17,45
730,27839133.628454057,0.0, 1,10,60,472412.2765538478,19, 6,30
4,151, 5
51,0.0,0.0, 1, 1,15,0.0, 1, 1,15
88,88362739.72603122,29691.780821917808, 1, 1,15,29691.780821917808, 1, 1,15
208,23161347.491638967,5663.3694000000009, 1, 1,15,16227.25197394704, 5,17,60
545,-1023466033.4548347,-2106286.623607138, 2,12,45,332571.76887558426,27,19,30
692,107000784.39583603,0.0, 1, 1,15,452321.86582709968,27,17,30
730,0.0,0.0, 1, 1,15,0.0, 1, 1,15
4,181, 6
51,0.0,0.0, 1, 1,15,0.0, 1, 1,15
88,85512328.76712695,29691.780821917808, 1, 1,15,29691.780821917808, 1, 1,15
208,36681203.26578101,5663.3694000000009, 1, 1,15,19511.465440968383,14,15,60
545,-308435319.46014949,-1492062.2295149493, 8,12,30,732694.279141223,13,18,45
692,743484280.574549,0.0, 1, 1,15,908367.9965537672,14,15,60
730,0.0,0.0, 1, 1,15,0.0, 1, 1,15
4,212, 7
51,0.0,0.0, 1, 1,15,0.0, 1, 1,15
88,88362739.72603122,29691.780821917808, 1, 1,15,29691.780821917808, 1, 1,15
208,40340263.78021468,5663.369399999999,22,20,45,19484.32573912239,31,16,30
545,-285766347.2360374,-1707858.6959812944,24,12,60,679130.666625941,17,19,30
692,883701905.9666776,0.0, 1,24,45,895071.8882279507,17,16,30
730,0.0,0.0, 1, 1,15,0.0, 1, 1,15
4,243, 8
51,0.0,0.0, 1, 1,15,0.0, 1, 1,15
88,88362739.72603122,29691.780821917808, 1, 1,15,29691.780821917808, 1, 1,15
208,48252592.3176818,5663.3694000000009, 7, 5,45,23935.714932721086, 1,15,15
545,-72700527.76836376,-1336221.3042423479, 7,12,45,807253.5290506617, 1,19,15
692,1093948730.4867237,0.0, 7, 5,45,993947.8914738481, 1,15,15
730,0.0,0.0, 1, 1,15,0.0, 1, 1,15
4,273, 9
51,0.0,0.0, 1, 1,15,0.0, 1, 1,15
88,85512328.76712695,29691.780821917808, 1, 1,15,29691.780821917808, 1, 1,15
208,42362837.7754977,5663.3694000000009, 2, 4,45,30116.664090969974, 6,16,15
545,-344228917.154257,-1583043.1476346744,23,12,45,790321.04404495, 6,18,30
692,826887783.9846522,0.0, 2, 4,45,1084220.9478923705, 6,15,60
730,0.0,0.0, 1, 1,15,0.0, 1, 1,15
4,304,10
51,0.0,0.0, 1, 1,15,0.0, 1, 1,15
88,88362739.72603122,29691.780821917808, 1, 1,15,29691.780821917808, 1, 1,15
208,25547010.548438103,5663.3694000000009, 1, 1,15,22087.184652253294, 4,16,30
545,-705586606.240752,-2114307.174250646, 9,13,15,660611.7864703753, 4,18,15
692,256122173.8872665,0.0, 1, 1,15,916852.1054008852, 4,16,30
730,0.0,0.0, 1, 1,15,0.0, 1, 1,15
4,334,11
51,0.0,0.0, 1, 1,15,0.0, 1, 1,15
88,85512328.76712695,29691.780821917808, 1, 1,15,29691.780821917808, 1, 1,15
208,23858109.597651274,5663.3694000000009, 1, 1,15,83164.02071782961,28, 5,60
545,-1033982252.1614579,-2074403.8330693006,21,12,45,798748.243603665,30, 7,60
692,13831741.512597768,0.0, 1, 1,15,395201.48328109478,10,14,30
730,24051467.60841042,0.0, 1, 1,15,675992.4420639176,30, 7,60
4,365,12
51,0.0,0.0, 1, 1,15,0.0, 1, 1,15
88,88362739.72603122,29691.780821917808, 1, 1,15,29691.780821917808, 1, 1,15
208,132050136.04080343,5663.3694000000009, 1,10,15,83164.02071782961, 1, 1,15
545,787986416.5239146,-2216125.782778367, 1,12,30,2225937.5524012215,24, 8,15
692,0.0,0.0, 1, 1,15,0.0, 1, 1,15
730,1573191614.6415964,0.0, 1, 9,60,2103181.7508614736,24, 8,15
End of Data
 Number of Records Written=         120
