Program Version,EnergyPlus, Version 9.5.0-de239b2e5f, YMD=2024.12.04 11:58
1,5,Environment Title[],Latitude[deg],Longitude[deg],Time Zone[],Elevation[m]
2,8,Day of Simulation[],Month[],Day of Month[],DST Indicator[1=yes 0=no],Hour[],StartMinute[],EndMinute[],DayType
3,5,Cumulative Day of Simulation[],Month[],Day of Month[],DST Indicator[1=yes 0=no],DayType  ! When Daily Meters Requested
4,2,Cumulative Days of Simulation[],Month[]  ! When Monthly Meters Requested
5,1,Cumulative Days of Simulation[] ! When Run Period Meters Requested
6,1,Calendar Year of Simulation[] ! When Annual Meters Requested
51,9,InteriorLights:Electricity [J] !Monthly [Value,Min,Day,Hour,Minute,Max,Day,Hour,Minute]
88,9,InteriorEquipment:Electricity [J] !Monthly [Value,Min,Day,Hour,Minute,Max,Day,Hour,Minute]
208,9,Fans:Electricity [J] !Monthly [Value,Min,Day,Hour,Minute,Max,Day,Hour,Minute]
730,9,Heating:Electricity [J] !Monthly [Value,Min,Day,Hour,Minute,Max,Day,Hour,Minute]
692,9,Cooling:Electricity [J] !Monthly [Value,Min,Day,Hour,Minute,Max,Day,Hour,Minute]
545,9,ElectricityNet:Facility [J] !Monthly [Value,Min,Day,Hour,Minute,Max,Day,Hour,Minute]
End of Data Dictionary
1,CHICAGO MIDWAY AP ANN HTG 99.6% CONDNS DB HVAC Sizing Pass 1,  41.78, -87.75,  -6.00, 186.00
4,1, 1
51,0.0,0.0,21, 1,15,0.0,21, 1,15
88,2850410.958904104,29691.780821917808,21, 1,15,29691.780821917808,21, 1,15
208,9380218.403902609,97710.60837398556,21, 1,15,97710.60837398556,21, 1,15
545,282559600.5540745,1817180.5955192988,21, 1,15,3409409.3317311319,21,24,60
692,0.0,0.0,21, 1,15,0.0,21, 1,15
730,269412771.19126799,1679878.2063233953,21, 1,15,3272106.942535228,21,24,60
1,CHICAGO MIDWAY AP ANN HTG 99% CONDNS DB HVAC Sizing Pass 1,  41.78, -87.75,  -6.00, 186.00
4,1, 1
51,0.0,0.0,21, 1,15,0.0,21, 1,15
88,2850410.958904104,29691.780821917808,21, 1,15,29691.780821917808,21, 1,15
208,9380218.403902609,97710.60837398556,21, 1,15,97710.60837398556,21, 1,15
545,244423653.02998118,1431219.7151337369,21, 1,15,3010505.448289155,21,24,60
692,0.0,0.0,21, 1,15,0.0,21, 1,15
730,231276823.66717456,1293917.3259378332,21, 1,15,2873203.0590932515,21,24,60
1,CHICAGO MIDWAY AP ANN CLG .4% CONDNS DB=>MWB HVAC Sizing Pass 1,  41.78, -87.75,  -6.00, 186.00
4,1, 7
51,0.0,0.0,21, 1,15,0.0,21, 1,15
88,69415422.8001402,723077.3208347943,21, 1,15,723077.3208347943,21, 1,15
208,543683.4624000009,5663.3694000000009,21, 1,15,5663.3694000000009,21, 1,15
545,17953363.287158073,-1059821.1297539813,21,12,60,738640.6902347944,21, 1,15
692,0.0,0.0,21, 1,15,0.0,21, 1,15
730,0.0,0.0,21, 1,15,0.0,21, 1,15
1,CHICAGO MIDWAY AP ANN CLG 1% CONDNS DB=>MWB HVAC Sizing Pass 1,  41.78, -87.75,  -6.00, 186.00
4,1, 7
51,0.0,0.0,21, 1,15,0.0,21, 1,15
88,69415422.8001402,723077.3208347943,21, 1,15,723077.3208347943,21, 1,15
208,543683.4624000009,5663.3694000000009,21, 1,15,5663.3694000000009,21, 1,15
545,17566167.519980648,-1073263.123225123,21,12,60,738640.6902347944,21, 1,15
692,0.0,0.0,21, 1,15,0.0,21, 1,15
730,0.0,0.0,21, 1,15,0.0,21, 1,15
1,CHICAGO MIDWAY AP ANN HTG 99.6% CONDNS DB,  41.78, -87.75,  -6.00, 186.00
4,1, 1
51,0.0,0.0,21, 1,15,0.0,21, 1,15
88,2850410.958904104,29691.780821917808,21, 1,15,29691.780821917808,21, 1,15
208,9380218.403902609,97710.60837398556,21, 1,15,97710.60837398556,21, 1,15
545,282798928.20129409,1820016.152802403,21, 1,15,3411725.2723755247,21,24,60
692,0.0,0.0,21, 1,15,0.0,21, 1,15
730,269652098.8384873,1682713.7636064995,21, 1,15,3274422.883179621,21,24,60
1,CHICAGO MIDWAY AP ANN HTG 99% CONDNS DB,  41.78, -87.75,  -6.00, 186.00
4,1, 1
51,0.0,0.0,21, 1,15,0.0,21, 1,15
88,2850410.958904104,29691.780821917808,21, 1,15,29691.780821917808,21, 1,15
208,9380218.403902609,97710.60837398556,21, 1,15,97710.60837398556,21, 1,15
545,244423403.81037835,1431216.7766990467,21, 1,15,3010503.038244977,21,24,60
692,0.0,0.0,21, 1,15,0.0,21, 1,15
730,231276574.4475716,1293914.387503143,21, 1,15,2873200.6490490736,21,24,60
1,CHICAGO MIDWAY AP ANN CLG .4% CONDNS DB=>MWB,  41.78, -87.75,  -6.00, 186.00
4,1, 7
51,0.0,0.0,21, 1,15,0.0,21, 1,15
88,69415422.8001402,723077.3208347943,21, 1,15,723077.3208347943,21, 1,15
208,543683.4624000009,5663.3694000000009,21, 1,15,5663.3694000000009,21, 1,15
545,17953363.287158073,-1059821.1297539813,21,12,60,738640.6902347944,21, 1,15
692,0.0,0.0,21, 1,15,0.0,21, 1,15
730,0.0,0.0,21, 1,15,0.0,21, 1,15
1,CHICAGO MIDWAY AP ANN CLG 1% CONDNS DB=>MWB,  41.78, -87.75,  -6.00, 186.00
4,1, 7
51,0.0,0.0,21, 1,15,0.0,21, 1,15
88,69415422.8001402,723077.3208347943,21, 1,15,723077.3208347943,21, 1,15
208,543683.4624000009,5663.3694000000009,21, 1,15,5663.3694000000009,21, 1,15
545,17566167.519980648,-1073263.123225123,21,12,60,738640.6902347944,21, 1,15
692,0.0,0.0,21, 1,15,0.0,21, 1,15
730,0.0,0.0,21, 1,15,0.0,21, 1,15
1,ANNUAL,  41.78, -87.75,  -6.00, 186.00
4,31, 1
51,0.0,0.0, 1, 1,15,0.0, 1, 1,15
88,88362739.72603122,29691.780821917808, 1, 1,15,29691.780821917808, 1, 1,15
208,197164269.83716227,5663.3694,27, 1,30,97710.60837398556, 3,19,60
545,3084155354.929302,-2506973.372062307,30,12,60,3575503.5922167936, 6, 8,15
692,0.0,0.0, 1, 1,15,0.0, 1, 1,15
730,3682831869.824551,0.0, 1, 1,15,3438201.20302089, 6, 8,15
4,59, 2
51,0.0,0.0, 1, 1,15,0.0, 1, 1,15
88,79811506.84931842,29691.780821917808, 1, 1,15,29691.780821917808, 1, 1,15
208,134185094.24676177,5663.3694000000009, 1, 1,15,97710.60837398556, 3, 1,45
545,3162031633.626106,-2574838.5496653595, 2,12,60,7086309.349116352, 3, 1,30
692,0.0,0.0, 1, 1,15,0.0, 1, 1,15
730,3874645917.74388,0.0, 1, 1,15,6949006.959920447, 3, 1,15
4,90, 3
51,0.0,0.0, 1, 1,15,0.0, 1, 1,15
88,88362739.72603122,29691.780821917808, 1, 1,15,29691.780821917808, 1, 1,15
208,92078647.59164509,5663.3694000000009, 2,15,45,97710.60837398556, 1, 1,15
545,1140380460.55868,-2330165.635337687, 3,14,15,3023052.344120672, 2, 7,30
692,0.0,0.0, 1, 1,15,0.0, 1, 1,15
730,1997271593.0422424,0.0, 2,15,15,2885749.9549247685, 2, 7,30
4,120, 4
51,0.0,0.0, 1, 1,15,0.0, 1, 1,15
88,85512328.76712695,29691.780821917808, 1, 1,15,29691.780821917808, 1, 1,15
208,28168938.19786751,5663.3694000000009, 1,12,15,18210.053940617825, 1, 1,15
545,-634155826.5490712,-2279965.17054967,10,12,60,1225396.0966184745,19, 6,30
692,0.0,0.0, 1, 1,15,0.0, 1, 1,15
730,288482119.1519436,0.0, 1,12,15,1168494.261855939,19, 6,30
4,151, 5
51,0.0,0.0, 1, 1,15,0.0, 1, 1,15
88,88362739.72603122,29691.780821917808, 1, 1,15,29691.780821917808, 1, 1,15
208,19514768.82703581,5663.3694000000009, 1, 1,15,18210.053940617825, 1,24,15
545,-1094188821.530921,-2106286.623607138, 2,12,45,745903.1494322516, 3, 5,45
692,20453213.230962714,0.0, 1, 1,15,420205.78576360919,27,17,60
730,19471361.753392117,0.0, 1, 1,15,688101.3146697159, 3, 5,45
4,181, 6
51,0.0,0.0, 1, 1,15,0.0, 1, 1,15
88,85512328.76712695,29691.780821917808, 1, 1,15,29691.780821917808, 1, 1,15
208,36879969.457567479,5663.3694000000009, 1, 1,15,22230.04347319563,14,15,60
545,-323996803.82939597,-1758307.9385509636, 8,12,60,867921.6808201379,13,18,45
692,727724030.0135131,0.0, 1, 1,15,1042320.1614250864,14,15,60
730,0.0,0.0, 1, 1,15,0.0, 1, 1,15
4,212, 7
51,0.0,0.0, 1, 1,15,0.0, 1, 1,15
88,88362739.72603122,29691.780821917808, 1, 1,15,29691.780821917808, 1, 1,15
208,42729469.39192457,5663.369399999999,26,21,60,23478.20785488349,17,16,30
545,-253056043.90199439,-1707858.6959812944,24,12,60,825688.6156218647,17,19,30
692,914023003.6890093,0.0, 1, 5,15,1063176.7228295874,17,16,30
730,0.0,0.0, 1, 1,15,0.0, 1, 1,15
4,243, 8
51,0.0,0.0, 1, 1,15,0.0, 1, 1,15
88,88362739.72603122,29691.780821917808, 1, 1,15,29691.780821917808, 1, 1,15
208,50304101.96146355,5663.3694000000009, 3, 4,60,29293.659576311125, 1,15,30
545,-43059152.62885593,-1319951.207416229, 7,12,45,978342.6237609952, 1,18,60
692,1121538595.9824484,0.0, 3, 4,60,1166810.578878435, 1,15,30
730,0.0,0.0, 1, 1,15,0.0, 1, 1,15
4,273, 9
51,0.0,0.0, 1, 1,15,0.0, 1, 1,15
88,85512328.76712695,29691.780821917808, 1, 1,15,29691.780821917808, 1, 1,15
208,41373397.02316409,5663.3694000000009, 1, 4,30,36883.72804993964, 6,16,15
545,-388602589.69409897,-1734616.3800704918,23,12,30,967466.7319463834, 6,18,30
692,783503552.1971415,0.0, 1, 4,30,1266988.8670974768, 6,15,60
730,0.0,0.0, 1, 1,15,0.0, 1, 1,15
4,304,10
51,0.0,0.0, 1, 1,15,0.0, 1, 1,15
88,88362739.72603122,29691.780821917808, 1, 1,15,29691.780821917808, 1, 1,15
208,27229286.822382757,5663.3694000000009, 1, 1,15,24868.510121571988, 4,16,30
545,-683337754.1353188,-2114307.174250646, 9,13,15,936296.5729465026,28, 6,60
692,202585674.0554508,0.0, 1, 1,15,1045550.448370096, 4,16,30
730,74103075.66330798,0.0, 1, 1,15,878494.738183967,28, 6,60
4,334,11
51,0.0,0.0, 1, 1,15,0.0, 1, 1,15
88,85512328.76712695,29691.780821917808, 1, 1,15,29691.780821917808, 1, 1,15
208,38286390.630933459,5663.3694000000009, 1, 1,15,97710.60837398556, 3, 4,60
545,-507708203.7531684,-2074403.8330693006,21,12,45,1975965.0704036714,30, 7,60
692,22603.30098977275,0.0, 1, 1,15,19054.404899809575,10,14,45
730,549706373.1950413,0.0, 1, 1,15,1838662.6812077678,30, 7,60
4,365,12
51,0.0,0.0, 1, 1,15,0.0, 1, 1,15
88,88362739.72603122,29691.780821917808, 1, 1,15,29691.780821917808, 1, 1,15
208,168903928.3944818,5663.3694000000009, 1,13,45,97710.60837398556, 1, 1,15
545,2698290309.9732635,-2139898.414245963, 1,13,30,3667775.7992167428,24, 8,15
692,0.0,0.0, 1, 1,15,0.0, 1, 1,15
730,3446641715.73728,0.0, 1,13,15,3530473.410020839,24, 8,15
End of Data
 Number of Records Written=         120
