Program Version,EnergyPlus, Version 9.5.0-de239b2e5f, YMD=2024.12.04 11:58
1,5,Environment Title[],Latitude[deg],Longitude[deg],Time Zone[],Elevation[m]
2,8,Day of Simulation[],Month[],Day of Month[],DST Indicator[1=yes 0=no],Hour[],StartMinute[],EndMinute[],DayType
3,5,Cumulative Day of Simulation[],Month[],Day of Month[],DST Indicator[1=yes 0=no],DayType  ! When Daily Meters Requested
4,2,Cumulative Days of Simulation[],Month[]  ! When Monthly Meters Requested
5,1,Cumulative Days of Simulation[] ! When Run Period Meters Requested
6,1,Calendar Year of Simulation[] ! When Annual Meters Requested
50,9,InteriorLights:Electricity [J] !Monthly [Value,Min,Day,Hour,Minute,Max,Day,Hour,Minute]
87,9,InteriorEquipment:Electricity [J] !Monthly [Value,Min,Day,Hour,Minute,Max,Day,Hour,Minute]
207,9,Fans:Electricity [J] !Monthly [Value,Min,Day,Hour,Minute,Max,Day,Hour,Minute]
737,9,Heating:Electricity [J] !Monthly [Value,Min,Day,Hour,Minute,Max,Day,Hour,Minute]
776,9,Cooling:Electricity [J] !Monthly [Value,Min,Day,Hour,Minute,Max,Day,Hour,Minute]
543,9,ElectricityNet:Facility [J] !Monthly [Value,Min,Day,Hour,Minute,Max,Day,Hour,Minute]
688,9,NaturalGas:Facility [J] !Monthly [Value,Min,Day,Hour,Minute,Max,Day,Hour,Minute]
End of Data Dictionary
1,CHICAGO MIDWAY AP ANN HTG 99.6% CONDNS DB HVAC Sizing Pass 1,  41.78, -87.75,  -6.00, 186.00
4,1, 1
50,0.0,0.0,21, 1,15,0.0,21, 1,15
87,3550684.931506854,36986.30136986301,21, 1,15,36986.30136986301,21, 1,15
207,16152843.48214981,158568.9727249891,21, 1,15,174066.4541166225,21,19,30
543,20629743.59957438,205455.2740948521,21, 1,15,220952.75548648553,21,19,30
688,2270488290.034948,22244666.504283679,21, 1,15,24558975.73148447,21,24,30
737,0.0,0.0,21, 1,15,0.0,21, 1,15
776,0.0,0.0,21, 1,15,0.0,21, 1,15
1,CHICAGO MIDWAY AP ANN HTG 99% CONDNS DB HVAC Sizing Pass 1,  41.78, -87.75,  -6.00, 186.00
4,1, 1
50,0.0,0.0,21, 1,15,0.0,21, 1,15
87,3550684.931506854,36986.30136986301,21, 1,15,36986.30136986301,21, 1,15
207,14031202.308144927,136554.07953293815,21, 1,15,151929.92719117378,21,19,30
543,18508102.4255695,183440.38090280116,21, 1,15,198816.22856103679,21,19,30
688,1972856290.8711065,19156332.457786926,21, 1,15,21449622.255005007,21,24,30
737,0.0,0.0,21, 1,15,0.0,21, 1,15
776,0.0,0.0,21, 1,15,0.0,21, 1,15
1,CHICAGO MIDWAY AP ANN CLG .4% CONDNS DB=>MWB HVAC Sizing Pass 1,  41.78, -87.75,  -6.00, 186.00
4,1, 7
50,0.0,0.0,21, 1,15,0.0,21, 1,15
87,70115696.77274309,730371.8413827395,21, 1,15,730371.8413827395,21, 1,15
207,5074986.868745799,0.0,21, 5,30,105920.27180079857,21,16,15
543,134902633.5457022,713288.5519189182,21, 5,45,2800137.5025248357,21,18,30
688,4938873.761219158,0.0,21, 1,15,411576.7746735897,21,21,45
737,0.0,0.0,21, 1,15,0.0,21, 1,15
776,111709680.7039242,0.0,21, 5,30,2366311.5215814819,21,16,15
1,CHICAGO MIDWAY AP ANN CLG 1% CONDNS DB=>MWB HVAC Sizing Pass 1,  41.78, -87.75,  -6.00, 186.00
4,1, 7
50,0.0,0.0,21, 1,15,0.0,21, 1,15
87,70115696.77274309,730371.8413827395,21, 1,15,730371.8413827395,21, 1,15
207,4148066.717937322,0.0,21, 2,45,93692.33451262201,21,16,15
543,111845276.27221431,609426.475413516,21, 6,60,2504237.398456113,21,18,30
688,4938889.674519923,0.0,21, 1,15,411578.3449531736,21,21,45
737,0.0,0.0,21, 1,15,0.0,21, 1,15
776,89966439.32260664,0.0,21, 2,45,2057658.2425017216,21,16,15
1,CHICAGO MIDWAY AP ANN HTG 99.6% CONDNS DB,  41.78, -87.75,  -6.00, 186.00
4,1, 1
50,0.0,0.0,21, 1,15,0.0,21, 1,15
87,3550684.931506854,36986.30136986301,21, 1,15,36986.30136986301,21, 1,15
207,16155130.349468802,158596.06109587765,21, 1,15,174089.15592885129,21,19,30
543,20632030.46689338,205482.36246574066,21, 1,15,220975.4572987143,21,19,30
688,2270809100.594394,22248466.56533096,21, 1,15,24562148.414574408,21,24,30
737,0.0,0.0,21, 1,15,0.0,21, 1,15
776,0.0,0.0,21, 1,15,0.0,21, 1,15
1,CHICAGO MIDWAY AP ANN HTG 99% CONDNS DB,  41.78, -87.75,  -6.00, 186.00
4,1, 1
50,0.0,0.0,21, 1,15,0.0,21, 1,15
87,3550684.931506854,36986.30136986301,21, 1,15,36986.30136986301,21, 1,15
207,14031200.16560722,136554.0677432073,21, 1,15,151929.90584262723,21,19,30
543,18508100.283031804,183440.3691130703,21, 1,15,198816.20721249024,21,19,30
688,1972855990.3076606,19156330.803878059,21, 1,15,21449619.2699253,21,24,30
737,0.0,0.0,21, 1,15,0.0,21, 1,15
776,0.0,0.0,21, 1,15,0.0,21, 1,15
1,CHICAGO MIDWAY AP ANN CLG .4% CONDNS DB=>MWB,  41.78, -87.75,  -6.00, 186.00
4,1, 7
50,0.0,0.0,21, 1,15,0.0,21, 1,15
87,70115696.77274309,730371.8413827395,21, 1,15,730371.8413827395,21, 1,15
207,5074986.866642971,0.0,21, 5,30,105920.27177901572,21,16,15
543,134902633.49724,713288.5519189182,21, 5,45,2800137.502037264,21,18,30
688,4938873.761219166,0.0,21, 1,15,411576.77467359046,21,21,45
737,0.0,0.0,21, 1,15,0.0,21, 1,15
776,111709680.65756487,0.0,21, 5,30,2366311.5210948416,21,16,15
1,CHICAGO MIDWAY AP ANN CLG 1% CONDNS DB=>MWB,  41.78, -87.75,  -6.00, 186.00
4,1, 7
50,0.0,0.0,21, 1,15,0.0,21, 1,15
87,70115696.77274309,730371.8413827395,21, 1,15,730371.8413827395,21, 1,15
207,4148066.717926582,0.0,21, 2,45,93692.33451251152,21,16,15
543,111845276.27196932,609426.475413516,21, 6,60,2504237.3984540665,21,18,30
688,4938889.674519923,0.0,21, 1,15,411578.3449531737,21,21,45
737,0.0,0.0,21, 1,15,0.0,21, 1,15
776,89966439.32237242,0.0,21, 2,45,2057658.2424992952,21,16,15
1,ANNUAL,  41.78, -87.75,  -6.00, 186.00
4,31, 1
50,356558074.78712478,23003.746760459093, 1, 1,15,368059.9481673455, 1,21,15
87,1446972620.5928386,92506.92372980165, 1, 4,15,1016285.5056496044, 1,20,15
207,258731697.62024594,0.0, 2,20,45,188308.85739479849,30, 7,30
543,1231518319.3484243,-1839299.741484944,22,13,15,1568472.6536104235,30,20,15
688,36287749832.86651,16735.38315281604, 2,22,15,26198458.213088488,30, 5,60
737,0.0,0.0, 1, 1,15,0.0, 1, 1,15
776,0.0,0.0, 1, 1,15,0.0, 1, 1,15
4,59, 2
50,322052454.64643278,23003.746760459093, 1, 1,15,368059.9481673455, 1,21,15
87,1306943012.14837,92506.92372980165, 1, 4,15,1016285.5056496044, 1,20,15
207,197870085.01032523,0.0,24,14,15,246588.27266228869, 3, 7,60
543,948638666.5913053,-1945831.3996052047, 3,13,30,1611299.3398383174, 3,20,60
688,27750272770.153047,11505.57591756103,24,16,15,34618502.09854528, 3, 7,60
737,0.0,0.0, 1, 1,15,0.0, 1, 1,15
776,0.0,0.0, 1, 1,15,0.0, 1, 1,15
4,90, 3
50,356558074.78712478,23003.746760459093, 1, 1,15,368059.9481673455, 1,21,15
87,1446972620.5928386,92506.92372980165, 1, 4,15,1016285.5056496044, 1,20,15
207,109352043.5936571,0.0,11,12,60,123123.46067959123, 1, 7,30
543,929118219.1723845,-1924106.2317993588, 8,13,15,1497413.4964899778, 1,20,60
688,15331795278.018158,2091.922894102005,14, 1,15,17195421.171441787, 1, 7,45
737,0.0,0.0, 1, 1,15,0.0, 1, 1,15
776,0.0,0.0, 1, 1,15,0.0, 1, 1,15
4,120, 4
50,345056201.4068941,23003.746760459093, 1, 1,15,368059.9481673455, 1,21,15
87,1400296084.4446824,92506.92372980165, 1, 4,15,1016285.5056496044, 1,20,15
207,40022205.94928684,0.0, 1,17,15,51188.3927553615,16, 9,60
543,801864286.7555939,-1752154.9802122513,10,13,15,1442557.8910870308,15,20,60
688,5599245330.904773,348.65381568366765, 3, 3,15,7207402.668850178,16, 9,60
737,0.0,0.0, 1, 1,15,0.0, 1, 1,15
776,969007.6207446919,0.0, 1, 1,15,153301.48436141877, 7,18,15
4,151, 5
50,356558074.78712478,23003.746760459093, 1, 1,15,368059.9481673455, 1,21,15
87,1446972620.5928386,92506.92372980165, 1, 4,15,1016285.5056496044, 1,20,15
207,18616090.14021806,0.0, 3,11,60,44722.84782550709, 2, 7,15
543,649607719.8013082,-1571745.5873069936, 2,13,15,1798441.788358687, 9,19,15
688,2490942031.336915,348.65381568366765,10, 3,15,6138560.549612318, 2, 6,60
737,0.0,0.0, 1, 1,15,0.0, 1, 1,15
776,15883839.34948096,0.0, 1, 1,15,656847.3990205554, 9,17,15
4,181, 6
50,345056201.4068941,23003.746760459093, 1, 1,15,368059.9481673455, 1,21,15
87,1400296084.4446824,92506.92372980165, 1, 4,15,1016285.5056496044, 1,20,15
207,69573627.58898282,0.0, 1,13,60,120911.14900632049,14,15,60
543,2064879525.6364897,-1224326.13604679,23,12,30,3750593.259575591,13,19,15
688,617446044.7479382,348.65381568366765, 9, 3,15,3043340.027359818, 5, 1,60
737,0.0,0.0, 1, 1,15,0.0, 1, 1,15
776,1372226744.2635353,0.0, 1, 1,15,2720647.66277626,14,15,60
4,212, 7
50,356558074.78712478,23003.746760459093, 1, 1,15,368059.9481673455, 1,21,15
87,1446972620.5928386,92506.92372980165, 1, 4,15,1016285.5056496044, 1,20,15
207,109624586.69909856,0.0, 1, 2,60,176590.5745863073,24,15,60
543,2974577804.6299607,-929232.3914877467, 2,10,60,4913755.774251799,24,19,15
688,43189840.07163056,348.65381568366765, 1, 3,15,27543.651439009733, 1, 8,15
737,0.0,0.0, 1, 1,15,0.0, 1, 1,15
776,2306025779.259851,0.0, 1, 2,60,4185769.9132854829,24,15,60
4,243, 8
50,356558074.78712478,23003.746760459093, 1, 1,15,368059.9481673455, 1,21,15
87,1446972620.5928386,92506.92372980165, 1, 4,15,1016285.5056496044, 1,20,15
207,96104993.4773399,0.0, 3, 1,15,132603.50041564744, 1,18,15
543,2667304323.39762,-753407.0119690558, 7,12,30,4153690.3312832105, 1,19,15
688,43189840.07163056,348.65381568366765, 1, 3,15,27543.651439009733, 1, 8,15
737,0.0,0.0, 1, 1,15,0.0, 1, 1,15
776,2017365224.8391317,0.0, 3, 1,15,3014595.524633227, 1,18,15
4,273, 9
50,345056201.4068941,23003.746760459093, 1, 1,15,368059.9481673455, 1,21,15
87,1400296084.4446824,92506.92372980165, 1, 4,15,1016285.5056496044, 1,20,15
207,55161570.246137138,0.0, 1, 1,15,128135.75741208277, 6,17,15
543,1692800892.856085,-1471205.485698206,23,13,15,3437736.9943947235, 6,18,15
688,41796619.424158569,348.65381568366765, 1, 3,15,27543.651439009733, 1, 8,15
737,0.0,0.0, 1, 1,15,0.0, 1, 1,15
776,1139438904.4399138,0.0, 1, 1,15,2875095.8180182736, 6,17,15
4,304,10
50,356558074.78712478,23003.746760459093, 1, 1,15,368059.9481673455, 1,21,15
87,1446972620.5928386,92506.92372980165, 1, 4,15,1016285.5056496044, 1,20,15
207,36816153.633799318,0.0, 1, 1,15,95606.17620857999, 4,17,15
543,1096548124.3403068,-1595874.611386428, 9,13,15,2797314.9675844169, 4,18,15
688,3296299664.6610724,348.65381568366765, 1, 3,15,5927025.271647283,23, 6,60
737,0.0,0.0, 1, 1,15,0.0, 1, 1,15
776,278251805.72904989,0.0, 1, 1,15,2039826.4803481994, 4,17,15
4,334,11
50,345056201.4068941,23003.746760459093, 1, 1,15,368059.9481673455, 1,21,15
87,1400296084.4446824,92506.92372980165, 1, 4,15,1016285.5056496044, 1,20,15
207,57193237.07644193,0.0, 1, 8,60,70704.54254380304,30, 7,30
543,673149623.2807456,-1523356.5452767199,21,12,45,1452855.086294799,29,20,60
688,8015032103.217145,348.65381568366765,10, 3,15,9882519.43830178,30, 7,60
737,0.0,0.0, 1, 1,15,0.0, 1, 1,15
776,0.0,0.0, 1, 1,15,0.0, 1, 1,15
4,365,12
50,356558074.78712478,23003.746760459093, 1, 1,15,368059.9481673455, 1,21,15
87,1446972620.5928386,92506.92372980165, 1, 4,15,1016285.5056496044, 1,20,15
207,186464758.0233988,973.8716129825872, 9,13,60,180940.00750939855,19, 8,60
543,1037945379.5188501,-1640109.5174945417,24,13,15,1537775.7163448409,23,20,60
688,26149463994.99102,151261.92272651374, 9,13,60,25410505.11710825,19, 8,60
737,0.0,0.0, 1, 1,15,0.0, 1, 1,15
776,0.0,0.0, 1, 1,15,0.0, 1, 1,15
End of Data
 Number of Records Written=         140
