Program Version,EnergyPlus, Version 9.5.0-de239b2e5f, YMD=2024.12.04 11:58
1,5,Environment Title[],Latitude[deg],Longitude[deg],Time Zone[],Elevation[m]
2,8,Day of Simulation[],Month[],Day of Month[],DST Indicator[1=yes 0=no],Hour[],StartMinute[],EndMinute[],DayType
3,5,Cumulative Day of Simulation[],Month[],Day of Month[],DST Indicator[1=yes 0=no],DayType  ! When Daily Meters Requested
4,2,Cumulative Days of Simulation[],Month[]  ! When Monthly Meters Requested
5,1,Cumulative Days of Simulation[] ! When Run Period Meters Requested
6,1,Calendar Year of Simulation[] ! When Annual Meters Requested
51,9,InteriorLights:Electricity [J] !Monthly [Value,Min,Day,Hour,Minute,Max,Day,Hour,Minute]
88,9,InteriorEquipment:Electricity [J] !Monthly [Value,Min,Day,Hour,Minute,Max,Day,Hour,Minute]
208,9,Fans:Electricity [J] !Monthly [Value,Min,Day,Hour,Minute,Max,Day,Hour,Minute]
730,9,Heating:Electricity [J] !Monthly [Value,Min,Day,Hour,Minute,Max,Day,Hour,Minute]
692,9,Cooling:Electricity [J] !Monthly [Value,Min,Day,Hour,Minute,Max,Day,Hour,Minute]
545,9,ElectricityNet:Facility [J] !Monthly [Value,Min,Day,Hour,Minute,Max,Day,Hour,Minute]
End of Data Dictionary
1,CHICAGO MIDWAY AP ANN HTG 99.6% CONDNS DB HVAC Sizing Pass 1,  41.78, -87.75,  -6.00, 186.00
4,1, 1
51,0.0,0.0,21, 1,15,0.0,21, 1,15
88,2850410.958904104,29691.780821917808,21, 1,15,29691.780821917808,21, 1,15
208,12027997.359995828,125291.6391666229,21, 1,15,125291.6391666229,21, 1,15
545,646444966.3861836,5619258.6876998259,21, 1,15,7194938.381021281,21,24,60
692,0.0,0.0,21, 1,15,0.0,21, 1,15
730,630650358.0672835,5454375.267711284,21, 1,15,7030054.96103274,21,24,60
1,CHICAGO MIDWAY AP ANN HTG 99% CONDNS DB HVAC Sizing Pass 1,  41.78, -87.75,  -6.00, 186.00
4,1, 1
51,0.0,0.0,21, 1,15,0.0,21, 1,15
88,2850410.958904104,29691.780821917808,21, 1,15,29691.780821917808,21, 1,15
208,12027997.359995828,125291.6391666229,21, 1,15,125291.6391666229,21, 1,15
545,556889588.2838899,4697191.948382144,21, 1,15,6260067.9491398059,21,24,60
692,0.0,0.0,21, 1,15,0.0,21, 1,15
730,541094979.96499,4532308.528393602,21, 1,15,6095184.529151265,21,24,60
1,CHICAGO MIDWAY AP ANN CLG .4% CONDNS DB=>MWB HVAC Sizing Pass 1,  41.78, -87.75,  -6.00, 186.00
4,1, 7
51,0.0,0.0,21, 1,15,0.0,21, 1,15
88,69415422.8001402,723077.3208347943,21, 1,15,723077.3208347943,21, 1,15
208,543683.4624000009,5663.3694000000009,21, 1,15,5663.3694000000009,21, 1,15
545,17953363.287158073,-1059821.1297539813,21,12,60,738640.6902347944,21, 1,15
692,0.0,0.0,21, 1,15,0.0,21, 1,15
730,0.0,0.0,21, 1,15,0.0,21, 1,15
1,CHICAGO MIDWAY AP ANN CLG 1% CONDNS DB=>MWB HVAC Sizing Pass 1,  41.78, -87.75,  -6.00, 186.00
4,1, 7
51,0.0,0.0,21, 1,15,0.0,21, 1,15
88,69415422.8001402,723077.3208347943,21, 1,15,723077.3208347943,21, 1,15
208,543683.4624000009,5663.3694000000009,21, 1,15,5663.3694000000009,21, 1,15
545,17566167.519980648,-1073263.123225123,21,12,60,738640.6902347944,21, 1,15
692,0.0,0.0,21, 1,15,0.0,21, 1,15
730,0.0,0.0,21, 1,15,0.0,21, 1,15
1,CHICAGO MIDWAY AP ANN HTG 99.6% CONDNS DB,  41.78, -87.75,  -6.00, 186.00
4,1, 1
51,0.0,0.0,21, 1,15,0.0,21, 1,15
88,2850410.958904104,29691.780821917808,21, 1,15,29691.780821917808,21, 1,15
208,12027997.359995828,125291.6391666229,21, 1,15,125291.6391666229,21, 1,15
545,646687195.5819495,5622134.35188994,21, 1,15,7197301.256270491,21,24,60
692,0.0,0.0,21, 1,15,0.0,21, 1,15
730,630892587.2630496,5457250.931901399,21, 1,15,7032417.836281949,21,24,60
1,CHICAGO MIDWAY AP ANN HTG 99% CONDNS DB,  41.78, -87.75,  -6.00, 186.00
4,1, 1
51,0.0,0.0,21, 1,15,0.0,21, 1,15
88,2850410.958904104,29691.780821917808,21, 1,15,29691.780821917808,21, 1,15
208,12027997.359995828,125291.6391666229,21, 1,15,125291.6391666229,21, 1,15
545,556889337.8520571,4697189.013351616,21, 1,15,6260065.507890587,21,24,60
692,0.0,0.0,21, 1,15,0.0,21, 1,15
730,541094729.5331571,4532305.5933630759,21, 1,15,6095182.087902046,21,24,60
1,CHICAGO MIDWAY AP ANN CLG .4% CONDNS DB=>MWB,  41.78, -87.75,  -6.00, 186.00
4,1, 7
51,0.0,0.0,21, 1,15,0.0,21, 1,15
88,69415422.8001402,723077.3208347943,21, 1,15,723077.3208347943,21, 1,15
208,543683.4624000009,5663.3694000000009,21, 1,15,5663.3694000000009,21, 1,15
545,17953363.287158073,-1059821.1297539813,21,12,60,738640.6902347944,21, 1,15
692,0.0,0.0,21, 1,15,0.0,21, 1,15
730,0.0,0.0,21, 1,15,0.0,21, 1,15
1,CHICAGO MIDWAY AP ANN CLG 1% CONDNS DB=>MWB,  41.78, -87.75,  -6.00, 186.00
4,1, 7
51,0.0,0.0,21, 1,15,0.0,21, 1,15
88,69415422.8001402,723077.3208347943,21, 1,15,723077.3208347943,21, 1,15
208,543683.4624000009,5663.3694000000009,21, 1,15,5663.3694000000009,21, 1,15
545,17566167.519980648,-1073263.123225123,21,12,60,738640.6902347944,21, 1,15
692,0.0,0.0,21, 1,15,0.0,21, 1,15
730,0.0,0.0,21, 1,15,0.0,21, 1,15
1,ANNUAL,  41.78, -87.75,  -6.00, 186.00
4,31, 1
51,0.0,0.0, 1, 1,15,0.0, 1, 1,15
88,88362739.72603122,29691.780821917808, 1, 1,15,29691.780821917808, 1, 1,15
208,256980155.33840803,5663.3694000000009, 1, 1,15,125291.6391666229, 1, 3,30
545,7458567482.187522,-2506973.372062307,30,12,60,7577831.558918096, 6, 6,60
692,0.0,0.0, 1, 1,15,0.0, 1, 1,15
730,7997428111.5815,0.0, 1, 1,15,7412948.138929555, 6, 6,60
4,59, 2
51,0.0,0.0, 1, 1,15,0.0, 1, 1,15
88,79811506.84931842,29691.780821917808, 1, 1,15,29691.780821917808, 1, 1,15
208,177422055.31260369,5663.3694000000009, 1, 1,15,125291.6391666229, 3, 1,30
545,6987965981.771702,-2574838.5496653595, 2,12,60,14749534.694774993, 3, 1,60
692,0.0,0.0, 1, 1,15,0.0, 1, 1,15
730,7657343304.823629,0.0, 1, 1,15,14584651.274786456, 3, 1,30
4,90, 3
51,0.0,0.0, 1, 1,15,0.0, 1, 1,15
88,88362739.72603122,29691.780821917808, 1, 1,15,29691.780821917808, 1, 1,15
208,123587946.48853849,5663.3694000000009,11,11,15,125291.6391666229, 1, 1,15
545,3267518326.4275057,-2249198.1575523468,11,13,15,5633038.201448427, 1, 7,30
692,0.0,0.0, 1, 1,15,0.0, 1, 1,15
730,4092900160.014187,0.0,11,11,15,5543044.551078457, 1, 7,45
4,120, 4
51,0.0,0.0, 1, 1,15,0.0, 1, 1,15
88,85512328.76712695,29691.780821917808, 1, 1,15,29691.780821917808, 1, 1,15
208,43593208.27493001,5663.3694000000009, 1,14,60,21969.541965653403, 1, 1,15
545,-64911411.56581538,-2279965.17054967,10,12,60,1869026.9837391002,17, 4,60
692,0.0,0.0, 1, 1,15,0.0, 1, 1,15
730,842302264.0581513,0.0, 1,14,60,1807465.6609515288,17, 4,60
4,151, 5
51,0.0,0.0, 1, 1,15,0.0, 1, 1,15
88,88362739.72603122,29691.780821917808, 1, 1,15,29691.780821917808, 1, 1,15
208,27325719.485364826,5663.3694000000009, 1, 1,15,21969.541965653403, 1, 9,15
545,-935240094.2170168,-2106286.623607138, 2,12,45,1581612.9471487094, 3, 5,45
692,1560344.4432808264,0.0, 1, 1,15,148818.806749948,27,18,15
730,189502007.1966522,0.0, 1, 1,15,1551753.8006402204, 2, 6,60
4,181, 6
51,0.0,0.0, 1, 1,15,0.0, 1, 1,15
88,85512328.76712695,29691.780821917808, 1, 1,15,29691.780821917808, 1, 1,15
208,43739985.58825489,5663.3694000000009, 1,12,15,21969.541965653403, 1, 1,15
545,-258248023.4676688,-1758307.9385509636, 8,12,60,1117747.094450557,13,18,30
692,741539461.3661589,0.0, 1, 1,15,1367749.482104247,14,15,60
730,45073332.87839563,0.0, 1,12,15,368027.1300998205, 4, 7,60
4,212, 7
51,0.0,0.0, 1, 1,15,0.0, 1, 1,15
88,88362739.72603122,29691.780821917808, 1, 1,15,29691.780821917808, 1, 1,15
208,48766600.922622967,5663.369399999999,26,21,60,21969.541965653403, 1, 1,15
545,-185739221.35142679,-1707858.6959812944,24,12,60,1073173.4394824473,17,19,45
692,975302694.7088797,0.0, 1, 3,60,1299095.0142342773,17,16,15
730,0.0,0.0, 1, 1,15,0.0, 1, 1,15
4,243, 8
51,0.0,0.0, 1, 1,15,0.0, 1, 1,15
88,88362739.72603122,29691.780821917808, 1, 1,15,29691.780821917808, 1, 1,15
208,56564778.7686743,5663.3694000000009, 3, 4,15,26686.266182537693, 1,17,30
545,61565234.79162574,-1380421.7495980259, 7,12,30,1346633.0854495443, 1,18,45
692,1219902306.5957232,0.0, 3, 4,15,1515088.7751955789, 1,15,15
730,0.0,0.0, 1, 1,15,0.0, 1, 1,15
4,273, 9
51,0.0,0.0, 1, 1,15,0.0, 1, 1,15
88,85512328.76712695,29691.780821917808, 1, 1,15,29691.780821917808, 1, 1,15
208,43120873.45747856,5663.3694000000009, 1, 3,30,30232.97384666634, 6,16,15
545,-419051862.2565764,-2001660.3078865582,23,12,45,1186202.8831357512, 6,18,30
692,751306803.2003492,0.0, 1, 3,30,1582304.3748591159, 6,16,15
730,0.0,0.0, 1, 1,15,0.0, 1, 1,15
4,304,10
51,0.0,0.0, 1, 1,15,0.0, 1, 1,15
88,88362739.72603122,29691.780821917808, 1, 1,15,29691.780821917808, 1, 1,15
208,35347767.075756158,5663.3694000000009, 1, 1,15,21969.541965653403, 1,11,45
545,-407738131.39053449,-2120140.081778239,15,12,30,1699513.174486445,28, 6,60
692,174446085.4645275,0.0, 1, 1,15,1225815.0861531534, 4,16,30
730,369723806.7456495,0.0, 1, 1,15,1637951.8516988736,28, 6,60
4,334,11
51,0.0,0.0, 1, 1,15,0.0, 1, 1,15
88,85512328.76712695,29691.780821917808, 1, 1,15,29691.780821917808, 1, 1,15
208,58569797.27703741,5663.3694000000009, 1, 8,45,125291.6391666229, 3, 4,60
545,571031837.6706318,-2074403.8330693006,21,12,45,3399689.4178195695,30, 7,60
692,0.0,0.0, 1, 1,15,0.0, 1, 1,15
730,1608185611.2737463,0.0, 1, 8,45,3234805.9978310286,30, 7,60
4,365,12
51,0.0,0.0, 1, 1,15,0.0, 1, 1,15
88,88362739.72603122,29691.780821917808, 1, 1,15,29691.780821917808, 1, 1,15
208,219763716.34493757,5663.3694000000009, 5,13,60,125291.6391666229, 1, 1,15
545,6654037298.625111,-2074513.0869307668,31,12,45,7563754.123050282,19, 8,15
692,0.0,0.0, 1, 1,15,0.0, 1, 1,15
730,7351528916.438652,0.0, 5,13,60,7398870.703061741,19, 8,15
End of Data
 Number of Records Written=         120
