Program Version,EnergyPlus, Version 9.5.0-de239b2e5f, YMD=2024.12.04 11:57
1,5,Environment Title[],Latitude[deg],Longitude[deg],Time Zone[],Elevation[m]
2,8,Day of Simulation[],Month[],Day of Month[],DST Indicator[1=yes 0=no],Hour[],StartMinute[],EndMinute[],DayType
3,5,Cumulative Day of Simulation[],Month[],Day of Month[],DST Indicator[1=yes 0=no],DayType  ! When Daily Meters Requested
4,2,Cumulative Days of Simulation[],Month[]  ! When Monthly Meters Requested
5,1,Cumulative Days of Simulation[] ! When Run Period Meters Requested
6,1,Calendar Year of Simulation[] ! When Annual Meters Requested
51,9,InteriorLights:Electricity [J] !Monthly [Value,Min,Day,Hour,Minute,Max,Day,Hour,Minute]
88,9,InteriorEquipment:Electricity [J] !Monthly [Value,Min,Day,Hour,Minute,Max,Day,Hour,Minute]
208,9,Fans:Electricity [J] !Monthly [Value,Min,Day,Hour,Minute,Max,Day,Hour,Minute]
742,9,Heating:Electricity [J] !Monthly [Value,Min,Day,Hour,Minute,Max,Day,Hour,Minute]
781,9,Cooling:Electricity [J] !Monthly [Value,Min,Day,Hour,Minute,Max,Day,Hour,Minute]
545,9,ElectricityNet:Facility [J] !Monthly [Value,Min,Day,Hour,Minute,Max,Day,Hour,Minute]
693,9,NaturalGas:Facility [J] !Monthly [Value,Min,Day,Hour,Minute,Max,Day,Hour,Minute]
End of Data Dictionary
1,CHICAGO MIDWAY AP ANN HTG 99.6% CONDNS DB HVAC Sizing Pass 1,  41.78, -87.75,  -6.00, 186.00
4,1, 1
51,0.0,0.0,21, 1,15,0.0,21, 1,15
88,3550684.931506854,36986.30136986301,21, 1,15,36986.30136986301,21, 1,15
208,15994971.975378585,156740.88085018123,21, 1,15,172397.44609567189,21,19,30
545,20461856.90688544,203627.18222004424,21, 1,15,219283.7474655349,21,19,30
693,2242121795.9444215,21987762.65051569,21, 1,15,23916653.355536108,21,24,60
742,0.0,0.0,21, 1,15,0.0,21, 1,15
781,0.0,0.0,21, 1,15,0.0,21, 1,15
1,CHICAGO MIDWAY AP ANN HTG 99% CONDNS DB HVAC Sizing Pass 1,  41.78, -87.75,  -6.00, 186.00
4,1, 1
51,0.0,0.0,21, 1,15,0.0,21, 1,15
88,3550684.931506854,36986.30136986301,21, 1,15,36986.30136986301,21, 1,15
208,13873634.436715436,134729.96856612323,21, 1,15,150264.08990425385,21,19,30
545,18340519.36822228,181616.26993598624,21, 1,15,197150.39127411686,21,19,30
693,1944538510.404905,18900050.546321349,21, 1,15,20807608.453877149,21,24,60
742,0.0,0.0,21, 1,15,0.0,21, 1,15
781,0.0,0.0,21, 1,15,0.0,21, 1,15
1,CHICAGO MIDWAY AP ANN CLG .4% CONDNS DB=>MWB HVAC Sizing Pass 1,  41.78, -87.75,  -6.00, 186.00
4,1, 7
51,0.0,0.0,21, 1,15,0.0,21, 1,15
88,70115696.77274309,730371.8413827395,21, 1,15,730371.8413827395,21, 1,15
208,0.0,0.0,21, 1,15,0.0,21, 1,15
545,18109953.797360805,-1058189.9786060362,21,12,60,740271.8413827395,21, 1,15
693,0.0,0.0,21, 1,15,0.0,21, 1,15
742,0.0,0.0,21, 1,15,0.0,21, 1,15
781,0.0,0.0,21, 1,15,0.0,21, 1,15
1,CHICAGO MIDWAY AP ANN CLG 1% CONDNS DB=>MWB HVAC Sizing Pass 1,  41.78, -87.75,  -6.00, 186.00
4,1, 7
51,0.0,0.0,21, 1,15,0.0,21, 1,15
88,70115696.77274309,730371.8413827395,21, 1,15,730371.8413827395,21, 1,15
208,0.0,0.0,21, 1,15,0.0,21, 1,15
545,17722758.030183365,-1071631.9720771779,21,12,60,740271.8413827395,21, 1,15
693,0.0,0.0,21, 1,15,0.0,21, 1,15
742,0.0,0.0,21, 1,15,0.0,21, 1,15
781,0.0,0.0,21, 1,15,0.0,21, 1,15
1,CHICAGO MIDWAY AP ANN HTG 99.6% CONDNS DB,  41.78, -87.75,  -6.00, 186.00
4,1, 1
51,0.0,0.0,21, 1,15,0.0,21, 1,15
88,3550684.931506854,36986.30136986301,21, 1,15,36986.30136986301,21, 1,15
208,15997258.19954252,156767.96434844784,21, 1,15,172420.11856802737,21,19,30
545,20464143.131049374,203654.26571831085,21, 1,15,219306.41993789038,21,19,30
693,2242442509.685531,21991561.94989695,21, 1,15,23919824.14882004,21,24,60
742,0.0,0.0,21, 1,15,0.0,21, 1,15
781,0.0,0.0,21, 1,15,0.0,21, 1,15
1,CHICAGO MIDWAY AP ANN HTG 99% CONDNS DB,  41.78, -87.75,  -6.00, 186.00
4,1, 1
51,0.0,0.0,21, 1,15,0.0,21, 1,15
88,3550684.931506854,36986.30136986301,21, 1,15,36986.30136986301,21, 1,15
208,13873632.280857355,134729.94301092317,21, 1,15,150264.06857969202,21,19,30
545,18340517.212364194,181616.24438078618,21, 1,15,197150.36994955503,21,19,30
693,1944538207.9790445,18900046.961413117,21, 1,15,20807605.46970231,21,24,60
742,0.0,0.0,21, 1,15,0.0,21, 1,15
781,0.0,0.0,21, 1,15,0.0,21, 1,15
1,CHICAGO MIDWAY AP ANN CLG .4% CONDNS DB=>MWB,  41.78, -87.75,  -6.00, 186.00
4,1, 7
51,0.0,0.0,21, 1,15,0.0,21, 1,15
88,70115696.77274309,730371.8413827395,21, 1,15,730371.8413827395,21, 1,15
208,0.0,0.0,21, 1,15,0.0,21, 1,15
545,18109953.797360805,-1058189.9786060362,21,12,60,740271.8413827395,21, 1,15
693,0.0,0.0,21, 1,15,0.0,21, 1,15
742,0.0,0.0,21, 1,15,0.0,21, 1,15
781,0.0,0.0,21, 1,15,0.0,21, 1,15
1,CHICAGO MIDWAY AP ANN CLG 1% CONDNS DB=>MWB,  41.78, -87.75,  -6.00, 186.00
4,1, 7
51,0.0,0.0,21, 1,15,0.0,21, 1,15
88,70115696.77274309,730371.8413827395,21, 1,15,730371.8413827395,21, 1,15
208,0.0,0.0,21, 1,15,0.0,21, 1,15
545,17722758.030183365,-1071631.9720771779,21,12,60,740271.8413827395,21, 1,15
693,0.0,0.0,21, 1,15,0.0,21, 1,15
742,0.0,0.0,21, 1,15,0.0,21, 1,15
781,0.0,0.0,21, 1,15,0.0,21, 1,15
1,ANNUAL,  41.78, -87.75,  -6.00, 186.00
4,31, 1
51,0.0,0.0, 1, 1,15,0.0, 1, 1,15
88,110071232.87670824,36986.30136986301, 1, 1,15,36986.30136986301, 1, 1,15
208,205436078.7868868,0.0,27, 1,15,181542.4243183341, 6, 7,15
545,-568696212.7947922,-2505342.220914362,30,12,60,228428.7256881971, 6, 7,15
693,28775394526.71158,0.0,27, 1,15,25296318.18491721, 6, 6,60
742,0.0,0.0, 1, 1,15,0.0, 1, 1,15
781,0.0,0.0, 1, 1,15,0.0, 1, 1,15
4,59, 2
51,0.0,0.0, 1, 1,15,0.0, 1, 1,15
88,99419178.08218834,36986.30136986301, 1, 1,15,36986.30136986301, 1, 1,15
208,189813526.03025294,0.0, 1, 1,15,345084.2599342885, 3, 7,15
545,-637374778.8895993,-2573207.3985174146, 2,12,60,391970.5613041515, 3, 7,15
693,26585944882.435838,0.0, 1, 1,15,47991661.32934469, 3, 1,15
742,0.0,0.0, 1, 1,15,0.0, 1, 1,15
781,0.0,0.0, 1, 1,15,0.0, 1, 1,15
4,90, 3
51,0.0,0.0, 1, 1,15,0.0, 1, 1,15
88,110071232.87670824,36986.30136986301, 1, 1,15,36986.30136986301, 1, 1,15
208,120596629.50823397,0.0,11,13,45,127868.40935525103, 1, 7,30
545,-806664657.4162947,-2460837.3855751345, 8,12,45,174754.71072511405, 1, 7,30
693,16865692509.938065,0.0,11,13,45,17839962.542503884, 1, 7,45
742,0.0,0.0, 1, 1,15,0.0, 1, 1,15
781,0.0,0.0, 1, 1,15,0.0, 1, 1,15
4,120, 4
51,0.0,0.0, 1, 1,15,0.0, 1, 1,15
88,106520547.9452016,36986.30136986301, 1, 1,15,36986.30136986301, 1, 1,15
208,48973179.75886866,0.0, 2, 9,30,54654.78717125702,16, 9,60
545,-880825484.9619424,-2268950.7137602039,10,12,60,95141.84116897878,10, 5,60
693,6819953946.820857,0.0, 2, 9,30,7667026.505897423,16, 9,60
742,0.0,0.0, 1, 1,15,0.0, 1, 1,15
781,0.0,0.0, 1, 1,15,0.0, 1, 1,15
4,151, 5
51,0.0,0.0, 1, 1,15,0.0, 1, 1,15
88,110071232.87670824,36986.30136986301, 1, 1,15,36986.30136986301, 1, 1,15
208,25286127.354780266,0.0, 3,12,45,48961.04980487542, 2, 7,15
545,-1102216710.098202,-2093431.4012636678, 2,12,45,196815.36999792612, 9,18,30
693,3465962335.439064,0.0, 3,12,45,6633251.783985633, 2, 6,60
742,0.0,0.0, 1, 1,15,0.0, 1, 1,15
781,4416834.738655263,0.0, 1, 1,15,406955.16572850567, 9,17,15
4,181, 6
51,0.0,0.0, 1, 1,15,0.0, 1, 1,15
88,106520547.9452016,36986.30136986301, 1, 1,15,36986.30136986301, 1, 1,15
208,55505884.134667228,0.0, 1,14,30,114439.52944821732,14,15,60
545,41585053.92979775,-1766230.3861209688,23,12,30,2225283.112496199,13,18,30
693,876348688.8499112,0.0, 1,14,30,3374311.086026243, 1, 1,15
742,0.0,0.0, 1, 1,15,0.0, 1, 1,15
781,1053671753.9175273,0.0, 1, 1,15,2609672.1539354769,14,15,60
4,212, 7
51,0.0,0.0, 1, 1,15,0.0, 1, 1,15
88,110071232.87670824,36986.30136986301, 1, 1,15,36986.30136986301, 1, 1,15
208,60525261.86005961,0.0, 1, 2,30,104192.83932506002,17,14,60
545,146563015.9710856,-1706227.5448333494,24,12,60,2012661.883790083,17,19,60
693,0.0,0.0, 1, 1,15,0.0, 1, 1,15
742,0.0,0.0, 1, 1,15,0.0, 1, 1,15
781,1274137777.9432684,0.0, 1, 2,30,2337522.7326847428,17,14,60
4,243, 8
51,0.0,0.0, 1, 1,15,0.0, 1, 1,15
88,110071232.87670824,36986.30136986301, 1, 1,15,36986.30136986301, 1, 1,15
208,73271200.46609587,0.0, 2,23,60,122310.11664611817, 1,17,30
545,448643155.13161769,-1437869.8374515169, 7,12,30,2675968.838790091, 1,18,30
693,0.0,0.0, 1, 1,15,0.0, 1, 1,15
742,0.0,0.0, 1, 1,15,0.0, 1, 1,15
781,1568565312.0876163,0.0, 2,23,60,2820117.990714343, 1,17,30
4,273, 9
51,0.0,0.0, 1, 1,15,0.0, 1, 1,15
88,106520547.9452016,36986.30136986301, 1, 1,15,36986.30136986301, 1, 1,15
208,38180159.70163434,0.0, 1, 1,15,122534.60819741151, 6,16,45
545,-349448170.7136061,-2000029.156738613,23,12,45,2246011.0080497919, 6,17,15
693,4392162.794896478,0.0, 1, 1,15,341132.5100268628,23, 5,15
742,0.0,0.0, 1, 1,15,0.0, 1, 1,15
781,804842989.3210896,0.0, 1, 1,15,2793542.1726609368, 6,16,30
4,304,10
51,0.0,0.0, 1, 1,15,0.0, 1, 1,15
88,110071232.87670824,36986.30136986301, 1, 1,15,36986.30136986301, 1, 1,15
208,39993145.205956827,0.0, 1, 1,15,89160.0434947232, 4,16,45
545,-729062104.156938,-2118508.9306302939,15,12,30,1519616.6332431397, 4,17,45
693,4278355657.428023,0.0, 1, 1,15,6467653.001419638,25, 7,60
742,0.0,0.0, 1, 1,15,0.0, 1, 1,15
781,196492048.16290189,0.0, 1, 1,15,1935072.7285679146, 4,16,45
4,334,11
51,0.0,0.0, 1, 1,15,0.0, 1, 1,15
88,106520547.9452016,36986.30136986301, 1, 1,15,36986.30136986301, 1, 1,15
208,66700491.0867014,0.0, 1, 9,30,74767.58753933135,30, 7,30
545,-1008014860.6153679,-2062973.19394378,21,12,45,121653.88890919436,30, 7,30
693,9306758357.986294,0.0, 1, 9,30,10436322.567756439,30, 7,60
742,0.0,0.0, 1, 1,15,0.0, 1, 1,15
781,0.0,0.0, 1, 1,15,0.0, 1, 1,15
4,365,12
51,0.0,0.0, 1, 1,15,0.0, 1, 1,15
88,110071232.87670824,36986.30136986301, 1, 1,15,36986.30136986301, 1, 1,15
208,197396533.9660548,2937.303328758336, 9,13,60,185389.02764534797,19, 8,60
545,-698150307.0417484,-2164897.4135611897,24,12,45,230454.79778028118,19, 8,15
693,27639257527.828508,412047.75726021619, 9,13,60,26006552.44353304,19, 8,60
742,0.0,0.0, 1, 1,15,0.0, 1, 1,15
781,0.0,0.0, 1, 1,15,0.0, 1, 1,15
End of Data
 Number of Records Written=         140
