Program Version,EnergyPlus, Version 9.5.0-de239b2e5f, YMD=2024.12.04 11:59
1,5,Environment Title[],Latitude[deg],Longitude[deg],Time Zone[],Elevation[m]
2,8,Day of Simulation[],Month[],Day of Month[],DST Indicator[1=yes 0=no],Hour[],StartMinute[],EndMinute[],DayType
3,5,Cumulative Day of Simulation[],Month[],Day of Month[],DST Indicator[1=yes 0=no],DayType  ! When Daily Meters Requested
4,2,Cumulative Days of Simulation[],Month[]  ! When Monthly Meters Requested
5,1,Cumulative Days of Simulation[] ! When Run Period Meters Requested
6,1,Calendar Year of Simulation[] ! When Annual Meters Requested
50,9,InteriorLights:Electricity [J] !Monthly [Value,Min,Day,Hour,Minute,Max,Day,Hour,Minute]
87,9,InteriorEquipment:Electricity [J] !Monthly [Value,Min,Day,Hour,Minute,Max,Day,Hour,Minute]
207,9,Fans:Electricity [J] !Monthly [Value,Min,Day,Hour,Minute,Max,Day,Hour,Minute]
725,9,Heating:Electricity [J] !Monthly [Value,Min,Day,Hour,Minute,Max,Day,Hour,Minute]
687,9,Cooling:Electricity [J] !Monthly [Value,Min,Day,Hour,Minute,Max,Day,Hour,Minute]
543,9,ElectricityNet:Facility [J] !Monthly [Value,Min,Day,Hour,Minute,Max,Day,Hour,Minute]
End of Data Dictionary
1,CHICAGO MIDWAY AP ANN HTG 99.6% CONDNS DB HVAC Sizing Pass 1,  41.78, -87.75,  -6.00, 186.00
4,1, 1
50,0.0,0.0,21, 1,15,0.0,21, 1,15
87,2850410.958904104,29691.780821917808,21, 1,15,29691.780821917808,21, 1,15
207,13428945.965281977,139884.85380502084,21, 1,15,139884.85380502084,21, 1,15
543,712010840.223522,6210329.552945055,21, 1,15,8243074.27459578,21,24,15
687,0.0,0.0,21, 1,15,0.0,21, 1,15
725,688631689.4330855,6030852.918318116,21, 1,15,7660687.257856565,21,24,60
1,CHICAGO MIDWAY AP ANN HTG 99% CONDNS DB HVAC Sizing Pass 1,  41.78, -87.75,  -6.00, 186.00
4,1, 1
50,0.0,0.0,21, 1,15,0.0,21, 1,15
87,2850410.958904104,29691.780821917808,21, 1,15,29691.780821917808,21, 1,15
207,13428945.965281977,139884.85380502084,21, 1,15,139884.85380502084,21, 1,15
543,619151336.8609068,5254930.326046117,21, 1,15,7272229.95112669,21,24,15
687,0.0,0.0,21, 1,15,0.0,21, 1,15
725,595772171.5819265,5075453.691419178,21, 1,15,6689711.915596606,21,24,60
1,CHICAGO MIDWAY AP ANN CLG .4% CONDNS DB=>MWB HVAC Sizing Pass 1,  41.78, -87.75,  -6.00, 186.00
4,1, 7
50,0.0,0.0,21, 1,15,0.0,21, 1,15
87,69415422.8001402,723077.3208347943,21, 1,15,723077.3208347943,21, 1,15
207,3261650.383073275,33741.52434232941,21, 1,15,36036.61116233857,21,16,30
543,105306276.05094852,168986.1149328201,21,12,30,2264342.3652192854,21,19,45
687,79688068.8309967,218951.29893464247,21, 5,30,1442209.9397397745,21,16,15
725,0.0,0.0,21, 1,15,0.0,21, 1,15
1,CHICAGO MIDWAY AP ANN CLG 1% CONDNS DB=>MWB HVAC Sizing Pass 1,  41.78, -87.75,  -6.00, 186.00
4,1, 7
50,0.0,0.0,21, 1,15,0.0,21, 1,15
87,69415422.8001402,723077.3208347943,21, 1,15,723077.3208347943,21, 1,15
207,3239186.336863619,33741.52434232941,21, 1,15,33741.52434232941,21, 1,15
543,94063000.07055468,23117.942910767713,21,12,30,2140844.118167716,21,19,45
687,68854448.17569994,115231.75024133096,21, 5,30,1299095.0924387684,21,16,30
725,0.0,0.0,21, 1,15,0.0,21, 1,15
1,CHICAGO MIDWAY AP ANN HTG 99.6% CONDNS DB,  41.78, -87.75,  -6.00, 186.00
4,1, 1
50,0.0,0.0,21, 1,15,0.0,21, 1,15
87,2850410.958904104,29691.780821917808,21, 1,15,29691.780821917808,21, 1,15
207,13428945.965281977,139884.85380502084,21, 1,15,139884.85380502084,21, 1,15
543,712253758.2971695,6213227.87412125,21, 1,15,8245500.114921145,21,24,15
687,0.0,0.0,21, 1,15,0.0,21, 1,15
725,688874607.4572048,6033751.239494311,21, 1,15,7663101.7891136,21,24,60
1,CHICAGO MIDWAY AP ANN HTG 99% CONDNS DB,  41.78, -87.75,  -6.00, 186.00
4,1, 1
50,0.0,0.0,21, 1,15,0.0,21, 1,15
87,2850410.958904104,29691.780821917808,21, 1,15,29691.780821917808,21, 1,15
207,13428945.965281977,139884.85380502084,21, 1,15,139884.85380502084,21, 1,15
543,619151086.4554086,5254927.343205483,21, 1,15,7272227.508925404,21,24,15
687,0.0,0.0,21, 1,15,0.0,21, 1,15
725,595771921.1764124,5075450.708578544,21, 1,15,6689709.472399031,21,24,60
1,CHICAGO MIDWAY AP ANN CLG .4% CONDNS DB=>MWB,  41.78, -87.75,  -6.00, 186.00
4,1, 7
50,0.0,0.0,21, 1,15,0.0,21, 1,15
87,69415422.8001402,723077.3208347943,21, 1,15,723077.3208347943,21, 1,15
207,3261650.3828191438,33741.52434232941,21, 1,15,36036.611142664355,21,16,30
543,105306276.00669694,168986.11442636082,21,12,30,2264342.364814853,21,19,45
687,79688068.78699923,218951.29845397754,21, 5,30,1442209.9392533259,21,16,15
725,0.0,0.0,21, 1,15,0.0,21, 1,15
1,CHICAGO MIDWAY AP ANN CLG 1% CONDNS DB=>MWB,  41.78, -87.75,  -6.00, 186.00
4,1, 7
50,0.0,0.0,21, 1,15,0.0,21, 1,15
87,69415422.8001402,723077.3208347943,21, 1,15,723077.3208347943,21, 1,15
207,3239186.336863619,33741.52434232941,21, 1,15,33741.52434232941,21, 1,15
543,94063000.0762385,23117.942992815824,21,12,30,2140844.1181780879,21,19,45
687,68854448.18138372,115231.7503605752,21, 5,30,1299095.0924770015,21,16,30
725,0.0,0.0,21, 1,15,0.0,21, 1,15
1,ANNUAL,  41.78, -87.75,  -6.00, 186.00
4,31, 1
50,219639774.06886206,14170.308004442802, 1, 1,15,226724.92807108485, 1,21,15
87,1457328276.8014413,85448.05030085355, 1, 4,15,1017289.0567353523, 1,20,15
207,354934646.5393239,16990.1082, 1, 1,15,139884.85380502084, 1, 3,45
543,11720361453.919632,-462761.8666135239, 2,11,30,8954996.633098038,30, 8,30
687,0.0,0.0, 1, 1,15,0.0, 1, 1,15
725,10475613775.476185,0.0, 1, 1,15,8366747.68783303,30, 5,60
4,59, 2
50,198384312.06219838,14170.308004442802, 1, 1,15,226724.92807108485, 1,21,15
87,1316296508.0787192,85448.05030085355, 1, 4,15,1017289.0567353523, 1,20,15
207,229852530.53356017,16990.1082, 9,13,45,139884.85380502084, 1, 1,15
543,8588680434.816433,-1774327.5646533962,24,13,15,11443250.863296062, 3, 7,60
687,0.0,0.0, 1, 1,15,0.0, 1, 1,15
725,7683363791.226581,0.0, 9,13,45,10727880.11175457, 3, 7,60
4,90, 3
50,219639774.06886206,14170.308004442802, 1, 1,15,226724.92807108485, 1,21,15
87,1457328276.8014413,85448.05030085355, 1, 4,15,1017289.0567353523, 1,20,15
207,157133544.4190525,16990.1082,11,10,60,139884.85380502084, 1, 1,15
543,4589005909.251716,-1700319.4367208766,11,13,15,6051295.525908683, 1, 7,30
687,0.0,0.0, 1, 1,15,0.0, 1, 1,15
725,3695478993.691984,0.0,11,10,60,5468905.7633929629, 2, 4,60
4,120, 4
50,212554620.06664083,14170.308004442802, 1, 1,15,226724.92807108485, 1,21,15
87,1410317687.2272006,85448.05030085355, 1, 4,15,1017289.0567353523, 1,20,15
207,69840615.3715513,16990.1082, 1,12,15,33741.52434232941, 1, 1,15
543,1324370124.6120308,-1727806.7850266137,10,13,15,2021547.4167101144,17, 5,15
687,707709.8458003235,0.0, 1, 1,15,83403.64463706562, 4,18,15
725,573632085.3426933,0.0, 1,12,15,1853246.5724685407,17, 4,60
4,151, 5
50,219639774.06886206,14170.308004442802, 1, 1,15,226724.92807108485, 1,21,15
87,1457328276.8014413,85448.05030085355, 1, 4,15,1017289.0567353523, 1,20,15
207,57398382.85981785,16990.1082, 1, 1,15,33741.52434232941, 1,23,30
543,699823984.5544602,-1548788.3419903576, 2,13,15,1721101.5726963159,27,20,15
687,30625496.268094094,0.0, 1, 1,15,493468.7344888389,27,19,15
725,80065119.55296996,0.0, 1, 1,15,1395828.676851962, 2, 5,60
4,181, 6
50,212554620.06664083,14170.308004442802, 1, 1,15,226724.92807108485, 1,21,15
87,1410317687.2272006,85448.05030085355, 1, 4,15,1017289.0567353523, 1,20,15
207,78518366.32002674,16990.1082, 1, 1,15,41852.10095572509,13,18,15
543,1708827063.4835218,-1188733.4738191304, 8,13,15,2664749.322022041,13,19,15
687,1086941265.420765,0.0, 1, 1,15,1559544.7129727877,13,17,15
725,971637.0923239188,0.0, 1, 1,15,116032.50188786526, 5, 5,60
4,212, 7
50,219639774.06886206,14170.308004442802, 1, 1,15,226724.92807108485, 1,21,15
87,1457328276.8014413,85448.05030085355, 1, 4,15,1017289.0567353523, 1,20,15
207,97275901.65086282,16990.1082, 1, 4,30,73330.17097077101,24,15,60
543,2360657755.292965,-755458.3486779, 2,13,15,3211484.8161242224,24,19,15
687,1787827219.4091204,0.0, 1, 4,30,2171044.269736107,24,15,60
725,0.0,0.0, 1, 1,15,0.0, 1, 1,15
4,243, 8
50,219639774.06886206,14170.308004442802, 1, 1,15,226724.92807108485, 1,21,15
87,1457328276.8014413,85448.05030085355, 1, 4,15,1017289.0567353523, 1,20,15
207,96214229.8678159,16990.1082, 3, 4,30,52033.14277279695, 1,18,15
543,2220265749.520229,-742292.1690637011, 7,13,15,2907350.954584396, 1,19,15
687,1653590219.00927,0.0, 3, 4,30,1776667.2644602215, 1,18,15
725,0.0,0.0, 1, 1,15,0.0, 1, 1,15
4,273, 9
50,212554620.06664083,14170.308004442802, 1, 1,15,226724.92807108485, 1,21,15
87,1410317687.2272006,85448.05030085355, 1, 4,15,1017289.0567353523, 1,20,15
207,84239953.50715485,16990.1082, 1, 3,60,52279.42328863774, 6,17,15
543,1609083415.5711494,-1245739.405383703,23,12,30,2633479.906846399, 6,19,15
687,1107326403.0275124,0.0, 1, 3,60,1762012.4400047495, 6,17,15
725,0.0,0.0, 1, 1,15,0.0, 1, 1,15
4,304,10
50,219639774.06886206,14170.308004442802, 1, 1,15,226724.92807108485, 1,21,15
87,1457328276.8014413,85448.05030085355, 1, 4,15,1017289.0567353523, 1,20,15
207,67719874.77336423,16990.1082, 1, 1,15,34872.20884215372, 4,17,15
543,1279497834.3254898,-1565428.453419176, 9,13,15,2284701.305754225, 4,20,15
687,275824177.10656628,0.0, 1, 1,15,1352403.4466952328, 4,17,15
725,237846421.90612126,0.0, 1, 1,15,1508027.3183362627,26, 5,60
4,334,11
50,212554620.06664083,14170.308004442802, 1, 1,15,226724.92807108485, 1,21,15
87,1410317687.2272006,85448.05030085355, 1, 4,15,1017289.0567353523, 1,20,15
207,85659362.74620615,16990.1082, 1, 1,15,139884.85380502084, 3, 4,60
543,1863248795.6505097,-1496615.7140861538,21,12,45,3795870.08466102,30, 7,60
687,552920.5210725094,0.0, 1, 1,15,96804.3391107421,10,14,30
725,1241763485.3125036,0.0, 1, 1,15,3156116.849164573,30, 4,15
4,365,12
50,219639774.06886206,14170.308004442802, 1, 1,15,226724.92807108485, 1,21,15
87,1457328276.8014413,85448.05030085355, 1, 4,15,1017289.0567353523, 1,20,15
207,257992237.62657926,16990.1082, 5,13,30,139884.85380502084, 1, 1,15
543,8079154083.704965,-1514574.599213613,31,13,15,8097604.730558944,19, 8,15
687,0.0,0.0, 1, 1,15,0.0, 1, 1,15
725,7053054029.020984,0.0, 5,13,30,7443601.87028771,24, 4,60
End of Data
 Number of Records Written=         120
