Program Version,EnergyPlus, Version 9.5.0-de239b2e5f, YMD=2023.09.11 22:42
1,5,Environment Title[],Latitude[deg],Longitude[deg],Time Zone[],Elevation[m]
2,8,Day of Simulation[],Month[],Day of Month[],DST Indicator[1=yes 0=no],Hour[],StartMinute[],EndMinute[],DayType
3,5,Cumulative Day of Simulation[],Month[],Day of Month[],DST Indicator[1=yes 0=no],DayType  ! When Daily Meters Requested
4,2,Cumulative Days of Simulation[],Month[]  ! When Monthly Meters Requested
5,1,Cumulative Days of Simulation[] ! When Run Period Meters Requested
6,1,Calendar Year of Simulation[] ! When Annual Meters Requested
49,9,InteriorLights:Electricity [J] !Monthly [Value,Min,Day,Hour,Minute,Max,Day,Hour,Minute]
86,9,InteriorEquipment:Electricity [J] !Monthly [Value,Min,Day,Hour,Minute,Max,Day,Hour,Minute]
203,9,Fans:Electricity [J] !Monthly [Value,Min,Day,Hour,Minute,Max,Day,Hour,Minute]
719,9,Heating:Electricity [J] !Monthly [Value,Min,Day,Hour,Minute,Max,Day,Hour,Minute]
681,9,Cooling:Electricity [J] !Monthly [Value,Min,Day,Hour,Minute,Max,Day,Hour,Minute]
540,9,ElectricityNet:Facility [J] !Monthly [Value,Min,Day,Hour,Minute,Max,Day,Hour,Minute]
End of Data Dictionary
1,MONTREAL INT'L ANN HTG 99.6% CONDNS DB HVAC Sizing Pass 1,  45.47, -73.75,  -5.00,  36.00
4,1, 1
49,0.0,0.0,21, 1,15,0.0,21, 1,15
86,4389041.095890413,45719.17808219178,21, 1,15,45719.17808219178,21, 1,15
203,24107959.149486428,251124.5744738171,21, 1,15,251124.5744738171,21, 1,15
540,1327246463.039886,12707180.719105328,21, 1,15,14267245.169832977,21,24,60
681,0.0,0.0,21, 1,15,0.0,21, 1,15
719,1297831462.7945097,12400436.96654932,21, 1,15,13960501.41727697,21,24,60
1,MONTREAL INT'L ANN HTG 99% CONDNS DB HVAC Sizing Pass 1,  45.47, -73.75,  -5.00,  36.00
4,1, 1
49,0.0,0.0,21, 1,15,0.0,21, 1,15
86,4389041.095890413,45719.17808219178,21, 1,15,45719.17808219178,21, 1,15
203,24107959.149486428,251124.5744738171,21, 1,15,251124.5744738171,21, 1,15
540,1207839154.01374,11467480.14208785,21, 1,15,13022159.762136579,21,24,60
681,0.0,0.0,21, 1,15,0.0,21, 1,15
719,1178424153.7683626,11160736.389531844,21, 1,15,12715416.009580572,21,24,60
1,MONTREAL INT'L ANN HUM_N 99.6% CONDNS DP=>MCDB HVAC Sizing Pass 1,  45.47, -73.75,  -5.00,  36.00
4,1, 1
49,0.0,0.0,21, 1,15,0.0,21, 1,15
86,4389041.095890413,45719.17808219178,21, 1,15,45719.17808219178,21, 1,15
203,24107959.149486428,251124.5744738171,21, 1,15,251124.5744738171,21, 1,15
540,1299183789.3942192,12415177.26981645,21, 1,15,13974842.84916449,21,24,60
681,0.0,0.0,21, 1,15,0.0,21, 1,15
719,1269768789.1488424,12108433.517260446,21, 1,15,13668099.096608483,21,24,60
1,MONTREAL INT'L ANN HUM_N 99% CONDNS DP=>MCDB HVAC Sizing Pass 1,  45.47, -73.75,  -5.00,  36.00
4,1, 1
49,0.0,0.0,21, 1,15,0.0,21, 1,15
86,4389041.095890413,45719.17808219178,21, 1,15,45719.17808219178,21, 1,15
203,24107959.149486428,251124.5744738171,21, 1,15,251124.5744738171,21, 1,15
540,1190049376.2952083,11282505.984262739,21, 1,15,12836727.038609004,21,24,60
681,0.0,0.0,21, 1,15,0.0,21, 1,15
719,1160634376.0498312,10975762.231706731,21, 1,15,12529983.286052999,21,24,60
1,MONTREAL INT'L ANN HTG WIND 99.6% CONDNS WS=>MCDB HVAC Sizing Pass 1,  45.47, -73.75,  -5.00,  36.00
4,1, 1
49,0.0,0.0,21, 1,15,0.0,21, 1,15
86,4389041.095890413,45719.17808219178,21, 1,15,45719.17808219178,21, 1,15
203,24107959.149486428,251124.5744738171,21, 1,15,251124.5744738171,21, 1,15
540,758497306.1533306,6828489.744943817,21, 1,15,8329361.205420812,21,24,60
681,0.0,0.0,21, 1,15,0.0,21, 1,15
719,729082305.9079539,6521745.992387808,21, 1,15,8022617.452864804,21,24,60
1,MONTREAL INT'L ANN HTG WIND 99% CONDNS WS=>MCDB HVAC Sizing Pass 1,  45.47, -73.75,  -5.00,  36.00
4,1, 1
49,0.0,0.0,21, 1,15,0.0,21, 1,15
86,4389041.095890413,45719.17808219178,21, 1,15,45719.17808219178,21, 1,15
203,24107959.149486428,251124.5744738171,21, 1,15,251124.5744738171,21, 1,15
540,820328107.4969485,7462938.438776889,21, 1,15,8976165.37317655,21,24,60
681,0.0,0.0,21, 1,15,0.0,21, 1,15
719,790913107.2515719,7156194.6862208819,21, 1,15,8669421.620620545,21,24,60
1,MONTREAL INT'L ANN CLG .4% CONDNS DB=>MWB HVAC Sizing Pass 1,  45.47, -73.75,  -5.00,  36.00
4,1, 7
49,0.0,0.0,21, 1,15,0.0,21, 1,15
86,70954051.33685301,739104.7014255518,21, 1,15,739104.7014255518,21, 1,15
203,2886048.8181086468,5663.369400000001,21, 1,30,39121.45398080393,21, 7,45
540,80453751.47415714,67376.66637815173,21,12,30,1912187.5138541314,21,18,45
681,62007093.86265442,0.0,21, 1,30,1457307.0344316404,21,16,30
719,0.0,0.0,21, 1,15,0.0,21, 1,15
1,MONTREAL INT'L ANN CLG 1% CONDNS DB=>MWB HVAC Sizing Pass 1,  45.47, -73.75,  -5.00,  36.00
4,1, 7
49,0.0,0.0,21, 1,15,0.0,21, 1,15
86,70954051.33685301,739104.7014255518,21, 1,15,739104.7014255518,21, 1,15
203,2685000.8755714537,5663.369400000001,21, 1,15,39121.45398080393,21, 8,30
540,68159575.85688876,-121428.21513388514,21,12,45,1748191.8070458435,21,18,45
681,50348528.2605946,0.0,21, 1,15,1272274.3544285782,21,16,30
719,0.0,0.0,21, 1,15,0.0,21, 1,15
1,MONTREAL INT'L ANN CLG 2% CONDNS DB=>MWB HVAC Sizing Pass 1,  45.47, -73.75,  -5.00,  36.00
4,1, 7
49,0.0,0.0,21, 1,15,0.0,21, 1,15
86,70954051.33685301,739104.7014255518,21, 1,15,739104.7014255518,21, 1,15
203,2450794.2835058269,5663.369400000001,21, 1,15,39121.45398080393,21, 9,15
540,58002483.12087457,-288686.4709206692,21,12,30,1610810.7812886325,21,18,45
681,40830895.07590362,0.0,21, 1,15,1116353.9476792745,21,16,45
719,0.0,0.0,21, 1,15,0.0,21, 1,15
1,MONTREAL INT'L ANN CLG .4% CONDNS WB=>MDB HVAC Sizing Pass 1,  45.47, -73.75,  -5.00,  36.00
4,1, 7
49,0.0,0.0,21, 1,15,0.0,21, 1,15
86,70954051.33685301,739104.7014255518,21, 1,15,739104.7014255518,21, 1,15
203,2618084.7064098457,5663.369400000001,21, 1,15,39121.45398080393,21, 8,45
540,70348285.10958287,-69147.55216555218,21,12,45,1801024.1717972316,21,18,45
681,52719973.04830912,0.0,21, 1,15,1336371.582126154,21,16,30
719,0.0,0.0,21, 1,15,0.0,21, 1,15
1,MONTREAL INT'L ANN CLG 1% CONDNS WB=>MDB HVAC Sizing Pass 1,  45.47, -73.75,  -5.00,  36.00
4,1, 7
49,0.0,0.0,21, 1,15,0.0,21, 1,15
86,70954051.33685301,739104.7014255518,21, 1,15,739104.7014255518,21, 1,15
203,2383878.1143442189,5663.369400000001,21, 1,15,39121.45398080393,21, 9,30
540,58838252.29477313,-254712.8249536832,21,12,45,1645902.9926113736,21,18,45
681,41878236.68736616,0.0,21, 1,15,1159795.4831910288,21,16,30
719,0.0,0.0,21, 1,15,0.0,21, 1,15
1,MONTREAL INT'L ANN CLG 2% CONDNS WB=>MDB HVAC Sizing Pass 1,  45.47, -73.75,  -5.00,  36.00
4,1, 7
49,0.0,0.0,21, 1,15,0.0,21, 1,15
86,70954051.33685301,739104.7014255518,21, 1,15,739104.7014255518,21, 1,15
203,2250045.7760210034,5663.369400000001,21, 1,15,39121.45398080393,21, 9,60
540,51801439.885472018,-421498.42442217856,21, 9,60,1547145.6076075973,21,18,45
681,35264450.68121403,0.0,21, 1,15,1047456.3204242471,21,16,45
719,0.0,0.0,21, 1,15,0.0,21, 1,15
1,MONTREAL INT'L ANN CLG .4% CONDNS DP=>MDB HVAC Sizing Pass 1,  45.47, -73.75,  -5.00,  36.00
4,1, 7
49,0.0,0.0,21, 1,15,0.0,21, 1,15
86,70954051.33685301,739104.7014255518,21, 1,15,739104.7014255518,21, 1,15
203,2316961.9451826114,5663.369400000001,21, 1,15,39121.45398080393,21, 9,45
540,56287897.25915006,-336621.17789498707,21, 9,45,1626275.009075928,21,18,45
681,39568333.03349377,0.0,21, 1,15,1137757.8316721202,21,16,30
719,0.0,0.0,21, 1,15,0.0,21, 1,15
1,MONTREAL INT'L ANN CLG 1% CONDNS DP=>MDB HVAC Sizing Pass 1,  45.47, -73.75,  -5.00,  36.00
4,1, 7
49,0.0,0.0,21, 1,15,0.0,21, 1,15
86,70954051.33685301,739104.7014255518,21, 1,15,739104.7014255518,21, 1,15
203,2183129.6068593959,5663.369400000001,21, 1,15,39121.45398080393,21,10,15
540,50462289.99619316,-522926.62804392047,21, 9,60,1541311.1579975642,21,18,45
681,34107851.09006894,0.0,21, 1,15,1041184.184797991,21,16,45
719,0.0,0.0,21, 1,15,0.0,21, 1,15
1,MONTREAL INT'L ANN CLG 2% CONDNS DP=>MDB HVAC Sizing Pass 1,  45.47, -73.75,  -5.00,  36.00
4,1, 7
49,0.0,0.0,21, 1,15,0.0,21, 1,15
86,70954051.33685301,739104.7014255518,21, 1,15,739104.7014255518,21, 1,15
203,2049297.2685361775,5663.369400000001,21, 1,15,39121.45398080393,21,10,45
540,43982251.34446764,-741341.0162924763,21,10,45,1442696.419473862,21,18,45
681,28050623.66747127,0.0,21, 1,15,936078.7674253907,21,16,45
719,0.0,0.0,21, 1,15,0.0,21, 1,15
1,MONTREAL INT'L ANN CLG .4% CONDNS ENTH=>MDB HVAC Sizing Pass 1,  45.47, -73.75,  -5.00,  36.00
4,1, 7
49,0.0,0.0,21, 1,15,0.0,21, 1,15
86,70954051.33685301,739104.7014255518,21, 1,15,739104.7014255518,21, 1,15
203,2618084.7064098457,5663.369400000001,21, 1,15,39121.45398080393,21, 8,45
540,70479149.37883753,-66509.89319552884,21,12,45,1803697.902791049,21,18,45
681,52850837.31756381,0.0,21, 1,15,1339508.661859524,21,16,30
719,0.0,0.0,21, 1,15,0.0,21, 1,15
1,MONTREAL INT'L ANN CLG 1% CONDNS ENTH=>MDB HVAC Sizing Pass 1,  45.47, -73.75,  -5.00,  36.00
4,1, 7
49,0.0,0.0,21, 1,15,0.0,21, 1,15
86,70954051.33685301,739104.7014255518,21, 1,15,739104.7014255518,21, 1,15
203,2384143.7773828159,5663.369400000001,21, 1,15,39121.45398080393,21, 9,30
540,59535638.725997667,-242502.48202274115,21,12,45,1655678.7606932615,21,18,45
681,42546429.391435969,0.0,21, 1,15,1170947.7153697424,21,16,30
719,0.0,0.0,21, 1,15,0.0,21, 1,15
1,MONTREAL INT'L ANN CLG 2% CONDNS ENTH=>MDB HVAC Sizing Pass 1,  45.47, -73.75,  -5.00,  36.00
4,1, 7
49,0.0,0.0,21, 1,15,0.0,21, 1,15
86,70954051.33685301,739104.7014255518,21, 1,15,739104.7014255518,21, 1,15
203,2250045.7760210034,5663.369400000001,21, 1,15,39121.45398080393,21, 9,60
540,51786537.85146857,-421555.3135671335,21, 9,60,1546809.4711324943,21,18,45
681,35249548.647210579,0.0,21, 1,15,1047074.9109014742,21,16,45
719,0.0,0.0,21, 1,15,0.0,21, 1,15
1,MONTREAL INT'L ANN HTG 99.6% CONDNS DB,  45.47, -73.75,  -5.00,  36.00
4,1, 1
49,0.0,0.0,21, 1,15,0.0,21, 1,15
86,4389041.095890413,45719.17808219178,21, 1,15,45719.17808219178,21, 1,15
203,24107959.149486428,251124.5744738171,21, 1,15,251124.5744738171,21, 1,15
540,1327435461.3799065,12709430.587330927,21, 1,15,14269102.89279821,21,24,60
681,0.0,0.0,21, 1,15,0.0,21, 1,15
719,1298020461.1345304,12402686.834774919,21, 1,15,13962359.140242205,21,24,60
1,MONTREAL INT'L ANN HTG 99% CONDNS DB,  45.47, -73.75,  -5.00,  36.00
4,1, 1
49,0.0,0.0,21, 1,15,0.0,21, 1,15
86,4389041.095890413,45719.17808219178,21, 1,15,45719.17808219178,21, 1,15
203,24107959.149486428,251124.5744738171,21, 1,15,251124.5744738171,21, 1,15
540,1207839059.1548813,11467479.011794974,21, 1,15,13022158.832729904,21,24,60
681,0.0,0.0,21, 1,15,0.0,21, 1,15
719,1178424058.9095052,11160735.259238968,21, 1,15,12715415.080173899,21,24,60
1,MONTREAL INT'L ANN HUM_N 99.6% CONDNS DP=>MCDB,  45.47, -73.75,  -5.00,  36.00
4,1, 1
49,0.0,0.0,21, 1,15,0.0,21, 1,15
86,4389041.095890413,45719.17808219178,21, 1,15,45719.17808219178,21, 1,15
203,24107959.149486428,251124.5744738171,21, 1,15,251124.5744738171,21, 1,15
540,1299183789.4372023,12415177.270328809,21, 1,15,13974842.849585602,21,24,60
681,0.0,0.0,21, 1,15,0.0,21, 1,15
719,1269768789.191826,12108433.517772804,21, 1,15,13668099.097029597,21,24,60
1,MONTREAL INT'L ANN HUM_N 99% CONDNS DP=>MCDB,  45.47, -73.75,  -5.00,  36.00
4,1, 1
49,0.0,0.0,21, 1,15,0.0,21, 1,15
86,4389041.095890413,45719.17808219178,21, 1,15,45719.17808219178,21, 1,15
203,24107959.149486428,251124.5744738171,21, 1,15,251124.5744738171,21, 1,15
540,1190049376.2954393,11282505.984266324,21, 1,15,12836727.038610734,21,24,60
681,0.0,0.0,21, 1,15,0.0,21, 1,15
719,1160634376.0500625,10975762.231710319,21, 1,15,12529983.286054729,21,24,60
1,MONTREAL INT'L ANN HTG WIND 99.6% CONDNS WS=>MCDB,  45.47, -73.75,  -5.00,  36.00
4,1, 1
49,0.0,0.0,21, 1,15,0.0,21, 1,15
86,4389041.095890413,45719.17808219178,21, 1,15,45719.17808219178,21, 1,15
203,24107959.149486428,251124.5744738171,21, 1,15,251124.5744738171,21, 1,15
540,758497306.1534478,6828489.744945599,21, 1,15,8329361.205421676,21,24,60
681,0.0,0.0,21, 1,15,0.0,21, 1,15
719,729082305.9080714,6521745.99238959,21, 1,15,8022617.452865669,21,24,60
1,MONTREAL INT'L ANN HTG WIND 99% CONDNS WS=>MCDB,  45.47, -73.75,  -5.00,  36.00
4,1, 1
49,0.0,0.0,21, 1,15,0.0,21, 1,15
86,4389041.095890413,45719.17808219178,21, 1,15,45719.17808219178,21, 1,15
203,24107959.149486428,251124.5744738171,21, 1,15,251124.5744738171,21, 1,15
540,820328107.4968962,7462938.4387763659,21, 1,15,8976165.373176001,21,24,60
681,0.0,0.0,21, 1,15,0.0,21, 1,15
719,790913107.25152,7156194.686220357,21, 1,15,8669421.620619994,21,24,60
1,MONTREAL INT'L ANN CLG .4% CONDNS DB=>MWB,  45.47, -73.75,  -5.00,  36.00
4,1, 7
49,0.0,0.0,21, 1,15,0.0,21, 1,15
86,70954051.33685301,739104.7014255518,21, 1,15,739104.7014255518,21, 1,15
203,2886048.8181086687,5663.369400000001,21, 1,30,39121.45398080393,21, 7,45
540,80453751.47417474,67376.66637844354,21,12,30,1912187.513854303,21,18,45
681,62007093.86267199,0.0,21, 1,30,1457307.034431835,21,16,30
719,0.0,0.0,21, 1,15,0.0,21, 1,15
1,MONTREAL INT'L ANN CLG 1% CONDNS DB=>MWB,  45.47, -73.75,  -5.00,  36.00
4,1, 7
49,0.0,0.0,21, 1,15,0.0,21, 1,15
86,70954051.33685301,739104.7014255518,21, 1,15,739104.7014255518,21, 1,15
203,2685000.8755714537,5663.369400000001,21, 1,15,39121.45398080393,21, 8,30
540,68159575.85694626,-121428.21513289491,21,12,45,1748191.8070464906,21,18,45
681,50348528.26065212,0.0,21, 1,15,1272274.3544296292,21,16,30
719,0.0,0.0,21, 1,15,0.0,21, 1,15
1,MONTREAL INT'L ANN CLG 2% CONDNS DB=>MWB,  45.47, -73.75,  -5.00,  36.00
4,1, 7
49,0.0,0.0,21, 1,15,0.0,21, 1,15
86,70954051.33685301,739104.7014255518,21, 1,15,739104.7014255518,21, 1,15
203,2450794.2835058269,5663.369400000001,21, 1,15,39121.45398080393,21, 9,15
540,58002483.12089403,-288686.47092024158,21,12,30,1610810.7812888646,21,18,45
681,40830895.07592306,0.0,21, 1,15,1116353.9476795777,21,16,45
719,0.0,0.0,21, 1,15,0.0,21, 1,15
1,MONTREAL INT'L ANN CLG .4% CONDNS WB=>MDB,  45.47, -73.75,  -5.00,  36.00
4,1, 7
49,0.0,0.0,21, 1,15,0.0,21, 1,15
86,70954051.33685301,739104.7014255518,21, 1,15,739104.7014255518,21, 1,15
203,2618084.7064098457,5663.369400000001,21, 1,15,39121.45398080393,21, 8,45
540,70348285.10960083,-69147.5521652,21,12,45,1801024.1717974223,21,18,45
681,52719973.04832708,0.0,21, 1,15,1336371.5821265348,21,16,30
719,0.0,0.0,21, 1,15,0.0,21, 1,15
1,MONTREAL INT'L ANN CLG 1% CONDNS WB=>MDB,  45.47, -73.75,  -5.00,  36.00
4,1, 7
49,0.0,0.0,21, 1,15,0.0,21, 1,15
86,70954051.33685301,739104.7014255518,21, 1,15,739104.7014255518,21, 1,15
203,2383878.1143442189,5663.369400000001,21, 1,15,39121.45398080393,21, 9,30
540,58838252.29481279,-254712.8249528722,21,12,45,1645902.9926119266,21,18,45
681,41878236.68740585,0.0,21, 1,15,1159795.4831916714,21,16,30
719,0.0,0.0,21, 1,15,0.0,21, 1,15
1,MONTREAL INT'L ANN CLG 2% CONDNS WB=>MDB,  45.47, -73.75,  -5.00,  36.00
4,1, 7
49,0.0,0.0,21, 1,15,0.0,21, 1,15
86,70954051.33685301,739104.7014255518,21, 1,15,739104.7014255518,21, 1,15
203,2250045.7760210034,5663.369400000001,21, 1,15,39121.45398080393,21, 9,60
540,51801439.88546228,-421498.4244227269,21, 9,60,1547145.6076074229,21,18,45
681,35264450.68120428,0.0,21, 1,15,1047456.320424021,21,16,45
719,0.0,0.0,21, 1,15,0.0,21, 1,15
1,MONTREAL INT'L ANN CLG .4% CONDNS DP=>MDB,  45.47, -73.75,  -5.00,  36.00
4,1, 7
49,0.0,0.0,21, 1,15,0.0,21, 1,15
86,70954051.33685301,739104.7014255518,21, 1,15,739104.7014255518,21, 1,15
203,2316961.9451826114,5663.369400000001,21, 1,15,39121.45398080393,21, 9,45
540,56287897.25915555,-336621.1778944683,21, 9,45,1626275.0090759972,21,18,45
681,39568333.033499289,0.0,21, 1,15,1137757.831672219,21,16,30
719,0.0,0.0,21, 1,15,0.0,21, 1,15
1,MONTREAL INT'L ANN CLG 1% CONDNS DP=>MDB,  45.47, -73.75,  -5.00,  36.00
4,1, 7
49,0.0,0.0,21, 1,15,0.0,21, 1,15
86,70954051.33685301,739104.7014255518,21, 1,15,739104.7014255518,21, 1,15
203,2183129.6068593959,5663.369400000001,21, 1,15,39121.45398080393,21,10,15
540,50462289.99617431,-522926.62804392047,21, 9,60,1541311.1579973126,21,18,45
681,34107851.09005008,0.0,21, 1,15,1041184.1847976758,21,16,45
719,0.0,0.0,21, 1,15,0.0,21, 1,15
1,MONTREAL INT'L ANN CLG 2% CONDNS DP=>MDB,  45.47, -73.75,  -5.00,  36.00
4,1, 7
49,0.0,0.0,21, 1,15,0.0,21, 1,15
86,70954051.33685301,739104.7014255518,21, 1,15,739104.7014255518,21, 1,15
203,2049297.2685361775,5663.369400000001,21, 1,15,39121.45398080393,21,10,45
540,43982251.34446653,-741341.0162925626,21,10,45,1442696.4194738435,21,18,45
681,28050623.66747014,0.0,21, 1,15,936078.7674253809,21,16,45
719,0.0,0.0,21, 1,15,0.0,21, 1,15
1,MONTREAL INT'L ANN CLG .4% CONDNS ENTH=>MDB,  45.47, -73.75,  -5.00,  36.00
4,1, 7
49,0.0,0.0,21, 1,15,0.0,21, 1,15
86,70954051.33685301,739104.7014255518,21, 1,15,739104.7014255518,21, 1,15
203,2618084.7064098457,5663.369400000001,21, 1,15,39121.45398080393,21, 8,45
540,70479149.37887518,-66509.89319479277,21,12,45,1803697.902791425,21,18,45
681,52850837.31760145,0.0,21, 1,15,1339508.661860031,21,16,30
719,0.0,0.0,21, 1,15,0.0,21, 1,15
1,MONTREAL INT'L ANN CLG 1% CONDNS ENTH=>MDB,  45.47, -73.75,  -5.00,  36.00
4,1, 7
49,0.0,0.0,21, 1,15,0.0,21, 1,15
86,70954051.33685301,739104.7014255518,21, 1,15,739104.7014255518,21, 1,15
203,2384143.777382815,5663.369400000001,21, 1,15,39121.45398080393,21, 9,30
540,59535638.72599393,-242502.48202275384,21,12,45,1655678.7606932086,21,18,45
681,42546429.39143224,0.0,21, 1,15,1170947.7153696737,21,16,30
719,0.0,0.0,21, 1,15,0.0,21, 1,15
1,MONTREAL INT'L ANN CLG 2% CONDNS ENTH=>MDB,  45.47, -73.75,  -5.00,  36.00
4,1, 7
49,0.0,0.0,21, 1,15,0.0,21, 1,15
86,70954051.33685301,739104.7014255518,21, 1,15,739104.7014255518,21, 1,15
203,2250045.7760210034,5663.369400000001,21, 1,15,39121.45398080393,21, 9,60
540,51786537.851497139,-421555.3135650059,21, 9,60,1546809.4711329006,21,18,45
681,35249548.64723913,0.0,21, 1,15,1047074.9109019802,21,16,45
719,0.0,0.0,21, 1,15,0.0,21, 1,15
1,ANNUAL,  45.47, -73.75,  -5.00,  36.00
4,31, 1
49,0.0,0.0, 1, 1,15,0.0, 1, 1,15
86,136060273.97261057,45719.17808219178, 1, 1,15,45719.17808219178, 1, 1,15
203,574158771.7954218,5663.3694000000009, 7, 1,30,251124.57447381717,13, 1,15
540,19383586888.657258,-2685845.4182857156, 9,13,30,29665360.247821656,13, 1,15
681,0.0,0.0, 1, 1,15,0.0, 1, 1,15
719,19708877943.780305,0.0, 7, 1,15,29358616.49526564,13, 1,15
4,59, 2
49,0.0,0.0, 1, 1,15,0.0, 1, 1,15
86,122893150.68493758,45719.17808219178, 1, 1,15,45719.17808219178, 1, 1,15
203,585047552.3444282,39121.45398080393, 1, 8,60,251124.5744738171, 1, 1,15
540,19694042029.268457,-713100.6636322194, 8,15,30,16223380.851896409,26, 6,60
681,0.0,0.0, 1, 1,15,0.0, 1, 1,15
719,20338724352.806478,1065976.0057764089, 8,15,60,15916637.099340402,26, 6,60
4,90, 3
49,0.0,0.0, 1, 1,15,0.0, 1, 1,15
86,136060273.97261057,45719.17808219178, 1, 1,15,45719.17808219178, 1, 1,15
203,526225911.9002033,5663.369400000001,23,13,60,251124.5744738171, 1, 1,15
540,13243350796.646109,-2317817.9314728479,27,13,30,12215189.466765415,17, 6,60
681,0.0,0.0, 1, 1,15,0.0, 1, 1,15
719,14241807582.635598,0.0,23,13,60,11908445.71420941,17, 6,60
4,120, 4
49,0.0,0.0, 1, 1,15,0.0, 1, 1,15
86,131671232.87671958,45719.17808219178, 1, 1,15,45719.17808219178, 1, 1,15
203,165956449.7332115,5663.369400000001,12,13,60,251124.5744738171, 3,24,60
540,4290285718.0141398,-2350340.038387793,12,13,30,7491959.973862321, 8, 6,30
681,0.0,0.0, 1, 1,15,0.0, 1, 1,15
719,5244381216.689015,0.0,12,13,60,7186116.221306314, 8, 6,30
4,151, 5
49,0.0,0.0, 1, 1,15,0.0, 1, 1,15
86,136060273.97261057,45719.17808219178, 1, 1,15,45719.17808219178, 1, 1,15
203,66878643.300054188,5663.369400000001, 1,10,30,39121.45398080393, 1, 1,15
540,58773360.25204856,-2131835.212229186,15,12,45,3692411.0707554474, 4, 1,60
681,37034753.796603869,0.0, 1, 1,15,950095.2532818485,19,17,45
719,1145859181.316055,0.0, 1,10,30,3597670.4386924526, 4, 1,60
4,181, 6
49,0.0,0.0, 1, 1,15,0.0, 1, 1,15
86,131671232.87671958,45719.17808219178, 1, 1,15,45719.17808219178, 1, 1,15
203,41776947.202290538,5663.369400000001, 1, 1,15,39121.45398080393, 2,10,60
540,-831613008.1675936,-1963274.4322589653,14,12,60,875767.8172539702, 2,18,45
681,243008170.96614094,0.0, 1, 1,15,1003204.8757443898, 2,17,60
719,42583106.690469358,0.0, 1, 1,15,611891.6735223628, 4, 5,15
4,212, 7
49,0.0,0.0, 1, 1,15,0.0, 1, 1,15
86,136060273.97261057,45719.17808219178, 1, 1,15,45719.17808219178, 1, 1,15
203,41034766.160683829,5663.3694,14,21,30,39121.45398080393, 1,15,60
540,-826188935.3370804,-1992766.6594624443,26,12,30,1718556.5789439697,20,18,45
681,300207318.03840616,0.0, 1, 1,15,1854813.9972786077,20,17,30
719,2024044.8077664984,0.0, 1, 1,15,240710.62244364254,27, 5,30
4,243, 8
49,0.0,0.0, 1, 1,15,0.0, 1, 1,15
86,136060273.97261057,45719.17808219178, 1, 1,15,45719.17808219178, 1, 1,15
203,48641578.20683447,5663.369400000001, 1, 1,15,39121.45398080393, 1,13,60
540,-644820747.9816202,-2078211.492057847,21,12,60,1367454.9052116434,15,18,45
681,471780357.43878957,0.0, 1, 1,15,1611509.5546372417,15,16,45
719,9573263.808388222,0.0, 1, 1,15,440653.5885697077,25, 5,60
4,273, 9
49,0.0,0.0, 1, 1,15,0.0, 1, 1,15
86,131671232.87671958,45719.17808219178, 1, 1,15,45719.17808219178, 1, 1,15
203,47868855.1946968,5663.369400000001, 1, 1,15,39121.45398080393, 1,13,60
540,-595490550.790892,-2254354.7163142466,23,13,15,3330494.2562959759,20, 3,60
681,59548222.147200178,0.0, 1, 1,15,895625.3833064017, 1,17,30
719,483210766.30608567,0.0, 1, 1,15,3235753.6242329797,20, 3,60
4,304,10
49,0.0,0.0, 1, 1,15,0.0, 1, 1,15
86,136060273.97261057,45719.17808219178, 1, 1,15,45719.17808219178, 1, 1,15
203,122932072.29235307,5663.369400000001, 1, 1,15,251124.5744738171,10, 2,15
540,2384218147.1349484,-2392703.9803212869,11,12,60,6485126.976838008,31, 6,60
681,0.0,0.0, 1, 1,15,0.0, 1, 1,15
719,3230343902.236199,0.0, 1, 1,15,6178383.224281999,31, 6,60
4,334,11
49,0.0,0.0, 1, 1,15,0.0, 1, 1,15
86,131671232.87671958,45719.17808219178, 1, 1,15,45719.17808219178, 1, 1,15
203,305692172.1135322,5663.369400000001, 1,14,15,251124.5744738171, 2,22,15
540,8578614230.308916,-2327990.4032200349, 4,12,30,8969568.255359687,19, 6,60
681,0.0,0.0, 1, 1,15,0.0, 1, 1,15
719,8904091610.574362,0.0, 1,14,15,8662824.502803682,19, 6,60
4,365,12
49,0.0,0.0, 1, 1,15,0.0, 1, 1,15
86,136060273.97261057,45719.17808219178, 1, 1,15,45719.17808219178, 1, 1,15
203,648981996.0032885,39121.45398080393, 4,11,45,251124.5744738171, 1, 1,15
540,20625705136.67046,-428566.6463286171,16,13,30,13540710.763142674,19, 6,60
681,0.0,0.0, 1, 1,15,0.0, 1, 1,15
719,20639475882.851274,1365183.2033633069,16,14,60,13233967.010586668,19, 6,60
End of Data
 Number of Records Written=         288
