Program Version,EnergyPlus, Version 9.5.0-de239b2e5f, YMD=2023.06.02 14:37
1,5,Environment Title[],Latitude[deg],Longitude[deg],Time Zone[],Elevation[m]
2,8,Day of Simulation[],Month[],Day of Month[],DST Indicator[1=yes 0=no],Hour[],StartMinute[],EndMinute[],DayType
3,5,Cumulative Day of Simulation[],Month[],Day of Month[],DST Indicator[1=yes 0=no],DayType  ! When Daily Meters Requested
4,2,Cumulative Days of Simulation[],Month[]  ! When Monthly Meters Requested
5,1,Cumulative Days of Simulation[] ! When Run Period Meters Requested
6,1,Calendar Year of Simulation[] ! When Annual Meters Requested
48,9,InteriorLights:Electricity [J] !Monthly [Value,Min,Day,Hour,Minute,Max,Day,Hour,Minute]
85,9,InteriorEquipment:Electricity [J] !Monthly [Value,Min,Day,Hour,Minute,Max,Day,Hour,Minute]
202,9,Fans:Electricity [J] !Monthly [Value,Min,Day,Hour,Minute,Max,Day,Hour,Minute]
740,9,Heating:Electricity [J] !Monthly [Value,Min,Day,Hour,Minute,Max,Day,Hour,Minute]
779,9,Cooling:Electricity [J] !Monthly [Value,Min,Day,Hour,Minute,Max,Day,Hour,Minute]
538,9,ElectricityNet:Facility [J] !Monthly [Value,Min,Day,Hour,Minute,Max,Day,Hour,Minute]
691,9,NaturalGas:Facility [J] !Monthly [Value,Min,Day,Hour,Minute,Max,Day,Hour,Minute]
End of Data Dictionary
1,MONTREAL INT'L ANN HTG 99.6% CONDNS DB HVAC Sizing Pass 1,  45.47, -73.75,  -5.00,  36.00
4,1, 1
48,0.0,0.0,21, 1,15,0.0,21, 1,15
85,4389041.095890413,45719.17808219178,21, 1,15,45719.17808219178,21, 1,15
202,4689622.291037768,36561.975909558314,21, 1,15,54477.895363964984,21,24,60
538,10006678.59234546,92181.15399175009,21, 1,15,110636.77972337058,21,24,15
691,341474368.2045179,2145596.967521369,21, 1,15,4507205.174618489,21,24,15
740,0.0,0.0,21, 1,15,0.0,21, 1,15
779,0.0,0.0,21, 1,15,0.0,21, 1,15
1,MONTREAL INT'L ANN HTG 99% CONDNS DB HVAC Sizing Pass 1,  45.47, -73.75,  -5.00,  36.00
4,1, 1
48,0.0,0.0,21, 1,15,0.0,21, 1,15
85,4389041.095890413,45719.17808219178,21, 1,15,45719.17808219178,21, 1,15
202,4495630.880575177,34629.19192557703,21, 1,15,52383.342916223424,21,24,60
538,9812687.180618309,90248.37000776881,21, 1,15,108545.01876242868,21,24,15
691,320207752.0876139,1933712.4649054616,21, 1,15,4277892.470353876,21,24,15
740,0.0,0.0,21, 1,15,0.0,21, 1,15
779,0.0,0.0,21, 1,15,0.0,21, 1,15
1,MONTREAL INT'L ANN HUM_N 99.6% CONDNS DP=>MCDB HVAC Sizing Pass 1,  45.47, -73.75,  -5.00,  36.00
4,1, 1
48,0.0,0.0,21, 1,15,0.0,21, 1,15
85,4389041.095890413,45719.17808219178,21, 1,15,45719.17808219178,21, 1,15
202,4652482.298557873,36189.366795741895,21, 1,15,54079.98270847595,21,24,60
538,9969538.59924166,91808.54487793368,21, 1,15,110239.31925691373,21,24,15
691,337402837.3752545,2104749.1038151925,21, 1,15,4463632.899804616,21,24,15
740,0.0,0.0,21, 1,15,0.0,21, 1,15
779,0.0,0.0,21, 1,15,0.0,21, 1,15
1,MONTREAL INT'L ANN HUM_N 99% CONDNS DP=>MCDB HVAC Sizing Pass 1,  45.47, -73.75,  -5.00,  36.00
4,1, 1
48,0.0,0.0,21, 1,15,0.0,21, 1,15
85,4389041.095890413,45719.17808219178,21, 1,15,45719.17808219178,21, 1,15
202,4474723.890938986,34421.504028521755,21, 1,15,52153.89707169105,21,24,60
538,9791780.181393477,90040.68211071354,21, 1,15,108320.48168323648,21,24,15
691,317915784.3555944,1910944.350552477,21, 1,15,4253277.186994508,21,24,15
740,0.0,0.0,21, 1,15,0.0,21, 1,15
779,0.0,0.0,21, 1,15,0.0,21, 1,15
1,MONTREAL INT'L ANN HTG WIND 99.6% CONDNS WS=>MCDB HVAC Sizing Pass 1,  45.47, -73.75,  -5.00,  36.00
4,1, 1
48,0.0,0.0,21, 1,15,0.0,21, 1,15
85,4389041.095890413,45719.17808219178,21, 1,15,45719.17808219178,21, 1,15
202,3375138.1912544968,24281.67505477716,21, 1,30,40301.3253888465,21,24,60
538,8692194.481738879,79900.85313696893,21, 1,30,96483.53721814155,21,24,15
691,197371962.0989119,799349.5543835479,21, 1,30,2955631.345801398,21,24,15
740,0.0,0.0,21, 1,15,0.0,21, 1,15
779,0.0,0.0,21, 1,15,0.0,21, 1,15
1,MONTREAL INT'L ANN HTG WIND 99% CONDNS WS=>MCDB HVAC Sizing Pass 1,  45.47, -73.75,  -5.00,  36.00
4,1, 1
48,0.0,0.0,21, 1,15,0.0,21, 1,15
85,4389041.095890413,45719.17808219178,21, 1,15,45719.17808219178,21, 1,15
202,3566092.2101970047,25915.90082597685,21, 1,30,42395.0195214902,21,24,60
538,8883148.53060473,81535.07890816863,21, 1,30,98573.85490672532,21,24,15
691,218305617.03003983,978504.1404948627,21, 1,30,3184786.2955274435,21,24,15
740,0.0,0.0,21, 1,15,0.0,21, 1,15
779,0.0,0.0,21, 1,15,0.0,21, 1,15
1,MONTREAL INT'L ANN CLG .4% CONDNS DB=>MWB HVAC Sizing Pass 1,  45.47, -73.75,  -5.00,  36.00
4,1, 7
48,0.0,0.0,21, 1,15,0.0,21, 1,15
85,70954051.33685301,739104.7014255518,21, 1,15,739104.7014255518,21, 1,15
202,3804273.5612872538,16990.108200000002,21, 3,30,60028.329567567,21,16,45
538,57465229.81334488,-457289.08264264909,21,12,45,1360492.4331533933,21,18,60
691,4938881.272561077,0.0,21, 1,15,411576.9777562816,21,21,45
740,0.0,0.0,21, 1,15,0.0,21, 1,15
779,38092335.27080679,0.0,21, 3,30,758770.4290879957,21,16,30
1,MONTREAL INT'L ANN CLG 1% CONDNS DB=>MWB HVAC Sizing Pass 1,  45.47, -73.75,  -5.00,  36.00
4,1, 7
48,0.0,0.0,21, 1,15,0.0,21, 1,15
85,70954051.33685301,739104.7014255518,21, 1,15,739104.7014255518,21, 1,15
202,3547066.510604571,16990.108200000002,21, 2,15,56835.54692360302,21,16,45
538,51796242.31670861,-540236.9728157091,21,12,45,1293351.415604654,21,18,60
691,4938895.472792598,0.0,21, 1,15,411578.6111266438,21,21,45
740,0.0,0.0,21, 1,15,0.0,21, 1,15
779,33115116.874487956,0.0,21, 2,15,690512.8624599592,21,16,30
1,MONTREAL INT'L ANN CLG 2% CONDNS DB=>MWB HVAC Sizing Pass 1,  45.47, -73.75,  -5.00,  36.00
4,1, 7
48,0.0,0.0,21, 1,15,0.0,21, 1,15
85,70954051.33685301,739104.7014255518,21, 1,15,739104.7014255518,21, 1,15
202,3324009.011795199,16990.108200000002,21, 1,15,53939.151671519394,21,17,15
538,46968992.97049188,-615033.2565286143,21,12,60,1234711.8178815204,21,18,60
691,4938853.946611329,0.0,21, 1,15,411577.6521610883,21, 6,45
740,0.0,0.0,21, 1,15,0.0,21, 1,15
779,28916178.05370483,0.0,21, 1,15,631123.146557681,21,16,45
1,MONTREAL INT'L ANN CLG .4% CONDNS WB=>MDB HVAC Sizing Pass 1,  45.47, -73.75,  -5.00,  36.00
4,1, 7
48,0.0,0.0,21, 1,15,0.0,21, 1,15
85,70954051.33685301,739104.7014255518,21, 1,15,739104.7014255518,21, 1,15
202,3625886.4776870326,16990.108200000002,21, 1,60,58467.87200215969,21,16,45
538,53811366.540349017,-505144.6676410668,21,12,45,1329782.846537175,21,18,60
691,4938873.156519726,0.0,21, 1,15,411578.5214969155,21,17,60
740,0.0,0.0,21, 1,15,0.0,21, 1,15
779,35167240.53310769,0.0,21, 1,60,731464.061285339,21,16,30
1,MONTREAL INT'L ANN CLG 1% CONDNS WB=>MDB HVAC Sizing Pass 1,  45.47, -73.75,  -5.00,  36.00
4,1, 7
48,0.0,0.0,21, 1,15,0.0,21, 1,15
85,70954051.33685301,739104.7014255518,21, 1,15,739104.7014255518,21, 1,15
202,3367721.4627208418,16990.108200000002,21, 1,15,55191.53469757176,21,16,45
538,48194157.71863328,-591142.0343968095,21,12,45,1263683.3859598167,21,18,60
691,4938875.579412494,0.0,21, 1,15,411578.05331124426,21, 6,45
740,0.0,0.0,21, 1,15,0.0,21, 1,15
779,30242286.584228748,0.0,21, 1,15,664044.4919300077,21,16,30
1,MONTREAL INT'L ANN CLG 2% CONDNS WB=>MDB HVAC Sizing Pass 1,  45.47, -73.75,  -5.00,  36.00
4,1, 7
48,0.0,0.0,21, 1,15,0.0,21, 1,15
85,70954051.33685301,739104.7014255518,21, 1,15,739104.7014255518,21, 1,15
202,3197083.96582731,16990.108200000002,21, 1,15,52903.91817189994,21,17,15
538,44527091.2765415,-650372.8690282694,21,12,45,1218735.3353412725,21,18,60
691,4938870.185164551,0.0,21, 1,15,411578.0689698141,21,23,30
740,0.0,0.0,21, 1,15,0.0,21, 1,15
779,27035051.712607184,0.0,21, 1,15,618148.480668675,21,16,45
1,MONTREAL INT'L ANN CLG .4% CONDNS DP=>MDB HVAC Sizing Pass 1,  45.47, -73.75,  -5.00,  36.00
4,1, 7
48,0.0,0.0,21, 1,15,0.0,21, 1,15
85,70954051.33685301,739104.7014255518,21, 1,15,739104.7014255518,21, 1,15
202,3310198.4919227359,16990.108200000002,21, 1,15,54939.27787010882,21,16,45
538,47060776.44764978,-606882.5857883402,21,12,45,1261083.4179913188,21,18,60
691,4938884.824646981,0.0,21, 1,15,411578.66506172387,21, 6,45
740,0.0,0.0,21, 1,15,0.0,21, 1,15
779,29339963.481634208,0.0,21, 1,15,662564.8972383243,21,16,30
1,MONTREAL INT'L ANN CLG 1% CONDNS DP=>MDB HVAC Sizing Pass 1,  45.47, -73.75,  -5.00,  36.00
4,1, 7
48,0.0,0.0,21, 1,15,0.0,21, 1,15
85,70954051.33685301,739104.7014255518,21, 1,15,739104.7014255518,21, 1,15
202,3165825.373439425,16990.108200000002,21, 1,15,52895.19541612902,21,17,15
538,43953236.70606047,-658494.2669913159,21,12,45,1220840.7940366725,21,18,60
691,4938880.760427823,0.0,21, 1,15,411577.77248911248,21,19,45
740,0.0,0.0,21, 1,15,0.0,21, 1,15
779,26608089.84633029,0.0,21, 1,15,621253.3800827374,21,16,45
1,MONTREAL INT'L ANN CLG 2% CONDNS DP=>MDB HVAC Sizing Pass 1,  45.47, -73.75,  -5.00,  36.00
4,1, 7
48,0.0,0.0,21, 1,15,0.0,21, 1,15
85,70954051.33685301,739104.7014255518,21, 1,15,739104.7014255518,21, 1,15
202,2994921.1471083417,16990.108200000002,21, 1,15,50541.29724258876,21,17,15
538,40334075.55366805,-720020.0083172857,21,12,45,1175254.4730715263,21,18,60
691,4938858.348848503,0.0,21, 1,15,411578.2655437068,21,12,15
740,0.0,0.0,21, 1,15,0.0,21, 1,15
779,23448811.847431158,0.0,21, 1,15,574801.0350367755,21,16,45
1,MONTREAL INT'L ANN CLG .4% CONDNS ENTH=>MDB HVAC Sizing Pass 1,  45.47, -73.75,  -5.00,  36.00
4,1, 7
48,0.0,0.0,21, 1,15,0.0,21, 1,15
85,70954051.33685301,739104.7014255518,21, 1,15,739104.7014255518,21, 1,15
202,3629254.774842516,16990.108200000002,21, 1,60,58537.5179574295,21,16,45
538,53891933.25178034,-503722.9387656159,21,12,45,1331309.8800728564,21,18,60
691,4938873.1136475,0.0,21, 1,15,411578.5201632555,21,17,60
740,0.0,0.0,21, 1,15,0.0,21, 1,15
779,35244438.94745308,0.0,21, 1,60,733108.086258597,21,16,30
1,MONTREAL INT'L ANN CLG 1% CONDNS ENTH=>MDB HVAC Sizing Pass 1,  45.47, -73.75,  -5.00,  36.00
4,1, 7
48,0.0,0.0,21, 1,15,0.0,21, 1,15
85,70954051.33685301,739104.7014255518,21, 1,15,739104.7014255518,21, 1,15
202,3384148.427460036,16990.108200000002,21, 1,15,55405.65994928818,21,16,45
538,48549085.79148049,-585525.7173082366,21,12,45,1267923.1521577379,21,18,60
691,4938874.177541566,0.0,21, 1,15,411577.96023665546,21, 6,45
740,0.0,0.0,21, 1,15,0.0,21, 1,15
779,30551859.630494857,0.0,21, 1,15,668367.831800046,21,16,30
1,MONTREAL INT'L ANN CLG 2% CONDNS ENTH=>MDB HVAC Sizing Pass 1,  45.47, -73.75,  -5.00,  36.00
4,1, 7
48,0.0,0.0,21, 1,15,0.0,21, 1,15
85,70954051.33685301,739104.7014255518,21, 1,15,739104.7014255518,21, 1,15
202,3196678.62198161,16990.108200000002,21, 1,15,52894.66006780381,21,17,15
538,44517427.60585693,-650548.869607541,21,12,45,1218531.3485128717,21,18,60
691,4938870.204066642,0.0,21, 1,15,411578.06932402416,21,23,30
740,0.0,0.0,21, 1,15,0.0,21, 1,15
779,27025793.38573765,0.0,21, 1,15,617929.8634178991,21,16,45
1,MONTREAL INT'L ANN HTG 99.6% CONDNS DB,  45.47, -73.75,  -5.00,  36.00
4,1, 1
48,0.0,0.0,21, 1,15,0.0,21, 1,15
85,4389041.095890413,45719.17808219178,21, 1,15,45719.17808219178,21, 1,15
202,4691893.742858184,36587.42936340283,21, 1,15,54500.34564392394,21,24,60
538,10008950.044135873,92206.60744559461,21, 1,15,110659.1981402619,21,24,15
691,341723379.686109,2148387.3426757568,21, 1,15,4509662.827548428,21,24,15
740,0.0,0.0,21, 1,15,0.0,21, 1,15
779,0.0,0.0,21, 1,15,0.0,21, 1,15
1,MONTREAL INT'L ANN HTG 99% CONDNS DB,  45.47, -73.75,  -5.00,  36.00
4,1, 1
48,0.0,0.0,21, 1,15,0.0,21, 1,15
85,4389041.095890413,45719.17808219178,21, 1,15,45719.17808219178,21, 1,15
202,4495629.840875861,34629.18012540936,21, 1,15,52383.33265620213,21,24,60
538,9812686.14091901,90248.35820760114,21, 1,15,108545.00851618633,21,24,15
691,320207638.1089411,1933711.1712934066,21, 1,15,4277891.347094124,21,24,15
740,0.0,0.0,21, 1,15,0.0,21, 1,15
779,0.0,0.0,21, 1,15,0.0,21, 1,15
1,MONTREAL INT'L ANN HUM_N 99.6% CONDNS DP=>MCDB,  45.47, -73.75,  -5.00,  36.00
4,1, 1
48,0.0,0.0,21, 1,15,0.0,21, 1,15
85,4389041.095890413,45719.17808219178,21, 1,15,45719.17808219178,21, 1,15
202,4652482.298974221,36189.366800436124,21, 1,15,54079.98271335505,21,24,60
538,9969538.599658009,91808.5448826279,21, 1,15,110239.31926166547,21,24,15
691,337402837.4208975,2104749.104329805,21, 1,15,4463632.900325532,21,24,15
740,0.0,0.0,21, 1,15,0.0,21, 1,15
779,0.0,0.0,21, 1,15,0.0,21, 1,15
1,MONTREAL INT'L ANN HUM_N 99% CONDNS DP=>MCDB,  45.47, -73.75,  -5.00,  36.00
4,1, 1
48,0.0,0.0,21, 1,15,0.0,21, 1,15
85,4389041.095890413,45719.17808219178,21, 1,15,45719.17808219178,21, 1,15
202,4474723.890918657,34421.504027330804,21, 1,15,52153.8970721878,21,24,60
538,9791780.181373155,90040.68210952259,21, 1,15,108320.48168373488,21,24,15
691,317915784.3533659,1910944.3504219179,21, 1,15,4253277.187049146,21,24,15
740,0.0,0.0,21, 1,15,0.0,21, 1,15
779,0.0,0.0,21, 1,15,0.0,21, 1,15
1,MONTREAL INT'L ANN HTG WIND 99.6% CONDNS WS=>MCDB,  45.47, -73.75,  -5.00,  36.00
4,1, 1
48,0.0,0.0,21, 1,15,0.0,21, 1,15
85,4389041.095890413,45719.17808219178,21, 1,15,45719.17808219178,21, 1,15
202,3375138.191223567,24281.675054310068,21, 1,30,40301.32538894283,21,24,60
538,8692194.481707946,79900.85313650184,21, 1,30,96483.53721822202,21,24,15
691,197371962.09552104,799349.5543323424,21, 1,30,2955631.34581022,21,24,15
740,0.0,0.0,21, 1,15,0.0,21, 1,15
779,0.0,0.0,21, 1,15,0.0,21, 1,15
1,MONTREAL INT'L ANN HTG WIND 99% CONDNS WS=>MCDB,  45.47, -73.75,  -5.00,  36.00
4,1, 1
48,0.0,0.0,21, 1,15,0.0,21, 1,15
85,4389041.095890413,45719.17808219178,21, 1,15,45719.17808219178,21, 1,15
202,3566092.210228351,25915.90082620659,21, 1,30,42395.0195222255,21,24,60
538,8883148.530636078,81535.07890839837,21, 1,30,98573.85490742038,21,24,15
691,218305617.03347598,978504.1405200488,21, 1,30,3184786.2956036406,21,24,15
740,0.0,0.0,21, 1,15,0.0,21, 1,15
779,0.0,0.0,21, 1,15,0.0,21, 1,15
1,MONTREAL INT'L ANN CLG .4% CONDNS DB=>MWB,  45.47, -73.75,  -5.00,  36.00
4,1, 7
48,0.0,0.0,21, 1,15,0.0,21, 1,15
85,70954051.33685301,739104.7014255518,21, 1,15,739104.7014255518,21, 1,15
202,3804273.5611298677,16990.108200000002,21, 3,30,60028.329566057306,21,16,45
538,57465229.810426007,-457289.08267368297,21,12,45,1360492.4331187166,21,18,60
691,4938881.272561083,0.0,21, 1,15,411576.97775628216,21,21,45
740,0.0,0.0,21, 1,15,0.0,21, 1,15
779,38092335.26804527,0.0,21, 3,30,758770.4290469374,21,16,30
1,MONTREAL INT'L ANN CLG 1% CONDNS DB=>MWB,  45.47, -73.75,  -5.00,  36.00
4,1, 7
48,0.0,0.0,21, 1,15,0.0,21, 1,15
85,70954051.33685301,739104.7014255518,21, 1,15,739104.7014255518,21, 1,15
202,3547066.5103807949,16990.108200000002,21, 2,15,56835.54692086808,21,16,45
538,51796242.312593419,-540236.9728807582,21,12,45,1293351.415585121,21,18,60
691,4938895.472792612,0.0,21, 1,15,411578.6111266451,21,21,45
740,0.0,0.0,21, 1,15,0.0,21, 1,15
779,33115116.870596548,0.0,21, 2,15,690512.8624114458,21,16,30
1,MONTREAL INT'L ANN CLG 2% CONDNS DB=>MWB,  45.47, -73.75,  -5.00,  36.00
4,1, 7
48,0.0,0.0,21, 1,15,0.0,21, 1,15
85,70954051.33685301,739104.7014255518,21, 1,15,739104.7014255518,21, 1,15
202,3324009.0118672645,16990.108200000002,21, 1,15,53939.15167227955,21,17,15
538,46968992.97180893,-615033.2564983297,21,12,60,1234711.8178947338,21,18,60
691,4938853.946611324,0.0,21, 1,15,411577.65216108798,21, 6,45
740,0.0,0.0,21, 1,15,0.0,21, 1,15
779,28916178.054949788,0.0,21, 1,15,631123.1465785484,21,16,45
1,MONTREAL INT'L ANN CLG .4% CONDNS WB=>MDB,  45.47, -73.75,  -5.00,  36.00
4,1, 7
48,0.0,0.0,21, 1,15,0.0,21, 1,15
85,70954051.33685301,739104.7014255518,21, 1,15,739104.7014255518,21, 1,15
202,3625886.477953247,16990.108200000002,21, 1,60,58467.872002210315,21,16,45
538,53811366.545357849,-505144.66757043308,21,12,45,1329782.8465804433,21,18,60
691,4938873.156519663,0.0,21, 1,15,411578.5214969133,21,17,60
740,0.0,0.0,21, 1,15,0.0,21, 1,15
779,35167240.53785032,0.0,21, 1,60,731464.0613340606,21,16,30
1,MONTREAL INT'L ANN CLG 1% CONDNS WB=>MDB,  45.47, -73.75,  -5.00,  36.00
4,1, 7
48,0.0,0.0,21, 1,15,0.0,21, 1,15
85,70954051.33685301,739104.7014255518,21, 1,15,739104.7014255518,21, 1,15
202,3367721.4630231165,16990.108200000002,21, 1,15,55191.5347026559,21,16,45
538,48194157.72422088,-591142.0343173589,21,12,45,1263683.3860359523,21,18,60
691,4938875.579412475,0.0,21, 1,15,411578.05331124286,21, 6,45
740,0.0,0.0,21, 1,15,0.0,21, 1,15
779,30242286.589514089,0.0,21, 1,15,664044.4919828163,21,16,30
1,MONTREAL INT'L ANN CLG 2% CONDNS WB=>MDB,  45.47, -73.75,  -5.00,  36.00
4,1, 7
48,0.0,0.0,21, 1,15,0.0,21, 1,15
85,70954051.33685301,739104.7014255518,21, 1,15,739104.7014255518,21, 1,15
202,3197083.965720695,16990.108200000002,21, 1,15,52903.91816999787,21,17,15
538,44527091.27458984,-650372.8690563208,21,12,45,1218735.3353080794,21,18,60
691,4938870.185164569,0.0,21, 1,15,411578.06896981448,21,23,30
740,0.0,0.0,21, 1,15,0.0,21, 1,15
779,27035051.71076212,0.0,21, 1,15,618148.4806360314,21,16,45
1,MONTREAL INT'L ANN CLG .4% CONDNS DP=>MDB,  45.47, -73.75,  -5.00,  36.00
4,1, 7
48,0.0,0.0,21, 1,15,0.0,21, 1,15
85,70954051.33685301,739104.7014255518,21, 1,15,739104.7014255518,21, 1,15
202,3310198.491922268,16990.108200000002,21, 1,15,54939.27786976893,21,16,45
538,47060776.44765311,-606882.5857809271,21,12,45,1261083.41797734,21,18,60
691,4938884.824646971,0.0,21, 1,15,411578.665061723,21, 6,45
740,0.0,0.0,21, 1,15,0.0,21, 1,15
779,29339963.481637986,0.0,21, 1,15,662564.8972327467,21,16,30
1,MONTREAL INT'L ANN CLG 1% CONDNS DP=>MDB,  45.47, -73.75,  -5.00,  36.00
4,1, 7
48,0.0,0.0,21, 1,15,0.0,21, 1,15
85,70954051.33685301,739104.7014255518,21, 1,15,739104.7014255518,21, 1,15
202,3165825.3734331538,16990.108200000002,21, 1,15,52895.195416488794,21,17,15
538,43953236.705939229,-658494.2669965517,21,12,45,1220840.7940441478,21,18,60
691,4938880.760427702,0.0,21, 1,15,411577.77248911306,21,19,45
740,0.0,0.0,21, 1,15,0.0,21, 1,15
779,26608089.846215324,0.0,21, 1,15,621253.3800881819,21,16,45
1,MONTREAL INT'L ANN CLG 2% CONDNS DP=>MDB,  45.47, -73.75,  -5.00,  36.00
4,1, 7
48,0.0,0.0,21, 1,15,0.0,21, 1,15
85,70954051.33685301,739104.7014255518,21, 1,15,739104.7014255518,21, 1,15
202,2994921.1470034227,16990.108200000002,21, 1,15,50541.297242499415,21,17,15
538,40334075.55174682,-720020.0083459106,21,12,45,1175254.4730564454,21,18,60
691,4938858.34884841,0.0,21, 1,15,411578.265543709,21,12,15
740,0.0,0.0,21, 1,15,0.0,21, 1,15
779,23448811.84561483,0.0,21, 1,15,574801.0350176343,21,16,45
1,MONTREAL INT'L ANN CLG .4% CONDNS ENTH=>MDB,  45.47, -73.75,  -5.00,  36.00
4,1, 7
48,0.0,0.0,21, 1,15,0.0,21, 1,15
85,70954051.33685301,739104.7014255518,21, 1,15,739104.7014255518,21, 1,15
202,3629254.774623931,16990.108200000002,21, 1,60,58537.51795343502,21,16,45
538,53891933.2476816,-503722.9388271091,21,12,45,1331309.8800239112,21,18,60
691,4938873.113647533,0.0,21, 1,15,411578.5201632567,21,17,60
740,0.0,0.0,21, 1,15,0.0,21, 1,15
779,35244438.94357292,0.0,21, 1,60,733108.0862262574,21,16,30
1,MONTREAL INT'L ANN CLG 1% CONDNS ENTH=>MDB,  45.47, -73.75,  -5.00,  36.00
4,1, 7
48,0.0,0.0,21, 1,15,0.0,21, 1,15
85,70954051.33685301,739104.7014255518,21, 1,15,739104.7014255518,21, 1,15
202,3384148.4276946436,16990.108200000002,21, 1,15,55405.659952007576,21,16,45
538,48549085.79585634,-585525.7172311496,21,12,45,1267923.1522056258,21,18,60
691,4938874.177541529,0.0,21, 1,15,411577.9602366524,21, 6,45
740,0.0,0.0,21, 1,15,0.0,21, 1,15
779,30551859.63463608,0.0,21, 1,15,668367.8318490404,21,16,30
1,MONTREAL INT'L ANN CLG 2% CONDNS ENTH=>MDB,  45.47, -73.75,  -5.00,  36.00
4,1, 7
48,0.0,0.0,21, 1,15,0.0,21, 1,15
85,70954051.33685301,739104.7014255518,21, 1,15,739104.7014255518,21, 1,15
202,3196678.6219354697,16990.108200000002,21, 1,15,52894.660067136916,21,17,15
538,44517427.60500355,-650548.8696261252,21,12,45,1218531.348504872,21,18,60
691,4938870.204066722,0.0,21, 1,15,411578.0693240251,21,23,30
740,0.0,0.0,21, 1,15,0.0,21, 1,15
779,27025793.38493041,0.0,21, 1,15,617929.8634102827,21,16,45
1,ANNUAL,  45.47, -73.75,  -5.00,  36.00
4,31, 1
48,219639774.06886206,14170.308004442802, 1, 1,15,226724.92807108485, 1,21,15
85,1166566162.6372848,95718.73441333045, 1, 4,15,876438.6073308148, 1,20,15
202,114767100.8454096,16990.108200000002, 1, 1,15,57140.14240292175,27, 4,60
538,518920491.1111702,-2330646.8654354244, 9,13,30,1167768.1959456835,28,20,60
691,7082114980.763132,0.0, 1, 1,15,4401859.685366195,27, 4,60
740,0.0,0.0, 1, 1,15,0.0, 1, 1,15
779,0.0,0.0, 1, 1,15,0.0, 1, 1,15
4,59, 2
48,198384312.06219838,14170.308004442802, 1, 1,15,226724.92807108485, 1,21,15
85,1053672663.0272216,95718.73441333045, 1, 4,15,876438.6073308148, 1,20,15
202,99901954.14756558,16990.108200000002, 8,14,60,57325.44248532894,26, 4,60
538,47719902.669576797,-2523349.7970929148,26,13,15,1168588.0672990005, 4,20,60
691,5984338553.7866539,11505.57591756103, 8,16,15,4422173.500112661,26, 4,60
740,0.0,0.0, 1, 1,15,0.0, 1, 1,15
779,0.0,0.0, 1, 1,15,0.0, 1, 1,15
4,90, 3
48,219639774.06886206,14170.308004442802, 1, 1,15,226724.92807108485, 1,21,15
85,1166566162.6372848,95718.73441333045, 1, 4,15,876438.6073308148, 1,20,15
202,85844014.49482523,16990.108200000002, 3,12,15,50334.54093140768,11, 4,60
538,-135125020.66134609,-2631357.563534136,17,13,15,1161653.9158667967, 9,20,60
691,3910974897.642376,8019.037760724353,27,24,15,3655784.855098036,11, 4,60
740,0.0,0.0, 1, 1,15,0.0, 1, 1,15
779,0.0,0.0, 1, 1,15,0.0, 1, 1,15
4,120, 4
48,212554620.06664083,14170.308004442802, 1, 1,15,226724.92807108485, 1,21,15
85,1128934996.100597,95718.73441333045, 1, 4,15,876438.6073308148, 1,20,15
202,62998439.96003464,16990.108200000002, 4, 9,60,40835.35566401515, 8, 4,60
538,204604874.84250034,-2337073.4080423216, 7,14,30,1152866.5544577395, 6,20,60
691,1583905898.170407,348.65381568366765,21, 3,15,2614421.638970871, 8, 4,60
740,0.0,0.0, 1, 1,15,0.0, 1, 1,15
779,0.0,0.0, 1, 1,15,0.0, 1, 1,15
4,151, 5
48,219639774.06886206,14170.308004442802, 1, 1,15,226724.92807108485, 1,21,15
85,1166566162.6372848,95718.73441333045, 1, 4,15,876438.6073308148, 1,20,15
202,59747063.618323419,16990.108200000002, 1, 1,15,60858.90509031382,19,18,15
538,296291722.53059378,-1782451.036780145,15,12,45,1749123.5681834699,19,20,15
691,194266011.30079214,348.65381568366765, 1, 3,15,1454447.5895778114, 5, 3,30
740,0.0,0.0, 1, 1,15,0.0, 1, 1,15
779,123830214.33938669,0.0, 1, 1,15,749888.4244777374,19,18,15
4,181, 6
48,212554620.06664083,14170.308004442802, 1, 1,15,226724.92807108485, 1,21,15
85,1128934996.100597,95718.73441333045, 1, 4,15,876438.6073308148, 1,20,15
202,84734063.09731713,16990.108200000002, 1, 1,15,65460.61761317857,10,19,30
538,769981182.499284,-1376948.6253435128, 4,12,30,1912133.9839635562,10,20,15
691,41796619.424158569,348.65381568366765, 1, 3,15,27543.651439009733, 1, 8,15
740,0.0,0.0, 1, 1,15,0.0, 1, 1,15
779,582569969.137919,0.0, 1, 1,15,813856.7812791895,10,19,30
4,212, 7
48,219639774.06886206,14170.308004442802, 1, 1,15,226724.92807108485, 1,21,15
85,1166566162.6372848,95718.73441333045, 1, 4,15,876438.6073308148, 1,20,15
202,94253373.28025487,16990.108200000002, 1, 1,15,74426.08550051859,20,17,15
538,953695430.5509901,-1409166.9091018185,26,12,30,2197398.2331517955,20,20,15
691,43189840.07163056,348.65381568366765, 1, 3,15,27543.651439009733, 1, 8,15
740,0.0,0.0, 1, 1,15,0.0, 1, 1,15
779,725183458.8811051,0.0, 1, 1,15,1053557.9005141515,20,17,15
4,243, 8
48,219639774.06886206,14170.308004442802, 1, 1,15,226724.92807108485, 1,21,15
85,1166566162.6372848,95718.73441333045, 1, 4,15,876438.6073308148, 1,20,15
202,98631763.90575947,16990.108200000002, 1, 1,45,74426.08550051859,15,17,15
538,1023248509.4737772,-1427331.3203205977,27,11,45,2036785.683594642,15,19,15
691,43189840.07163056,348.65381568366765, 1, 3,15,27543.651439009733, 1, 8,15
740,0.0,0.0, 1, 1,15,0.0, 1, 1,15
779,795719030.2700954,0.0, 1, 1,45,1014418.1901692109,15,17,15
4,273, 9
48,212554620.06664083,14170.308004442802, 1, 1,15,226724.92807108485, 1,21,15
85,1128934996.100597,95718.73441333045, 1, 4,15,876438.6073308148, 1,20,15
202,66134463.65782617,16990.108200000002, 1, 1,15,64854.95924316406, 1,18,15
538,418795948.447924,-1912662.2973485618,23,13,15,1748225.6801705254, 1,19,15
691,41796619.424158569,348.65381568366765, 1, 3,15,27543.651439009733, 1, 8,15
740,0.0,0.0, 1, 1,15,0.0, 1, 1,15
779,277121495.9384308,0.0, 1, 1,15,797524.312580486, 1,18,15
4,304,10
48,219639774.06886206,14170.308004442802, 1, 1,15,226724.92807108485, 1,21,15
85,1166566162.6372848,95718.73441333045, 1, 4,15,876438.6073308148, 1,20,15
202,54487472.70032389,16990.108200000002, 1, 1,15,34764.26088710961,31, 4,60
538,394039988.6893556,-2043319.8048722458,11,12,60,1301509.0943233183, 1,20,15
691,440051778.46866658,348.65381568366765, 1, 3,15,1948868.2673577064,31, 4,60
740,0.0,0.0, 1, 1,15,0.0, 1, 1,15
779,4896680.649092014,0.0, 1, 1,15,279508.5919088893, 1,17,15
4,334,11
48,212554620.06664083,14170.308004442802, 1, 1,15,226724.92807108485, 1,21,15
85,1128934996.100597,95718.73441333045, 1, 4,15,876438.6073308148, 1,20,15
202,77745684.46814808,16990.108200000002, 1,11,60,44375.83610234164,19, 4,60
538,708234515.3796938,-2107700.2968392178,14,12,30,1157416.6502371683,20,20,60
691,3200595912.9127867,2091.922894102005, 2, 1,15,3002552.409358827,19, 4,60
740,0.0,0.0, 1, 1,15,0.0, 1, 1,15
779,0.0,0.0, 1, 1,15,0.0, 1, 1,15
4,365,12
48,219639774.06886206,14170.308004442802, 1, 1,15,226724.92807108485, 1,21,15
85,1166566162.6372848,95718.73441333045, 1, 4,15,876438.6073308148, 1,20,15
202,113085823.16049363,16990.108200000002,16,14,30,53622.98602684622,30, 4,60
538,754046743.7099577,-2322714.524548899,18,12,30,1166537.923015146,28,20,60
691,6897401279.132254,11505.57591756103,16,16,15,4016285.8522097046,30, 4,60
740,0.0,0.0, 1, 1,15,0.0, 1, 1,15
779,0.0,0.0, 1, 1,15,0.0, 1, 1,15
End of Data
 Number of Records Written=         336
