Program Version,EnergyPlus, Version 9.5.0-de239b2e5f, YMD=2023.07.06 14:34
1,5,Environment Title[],Latitude[deg],Longitude[deg],Time Zone[],Elevation[m]
2,8,Day of Simulation[],Month[],Day of Month[],DST Indicator[1=yes 0=no],Hour[],StartMinute[],EndMinute[],DayType
3,5,Cumulative Day of Simulation[],Month[],Day of Month[],DST Indicator[1=yes 0=no],DayType  ! When Daily Meters Requested
4,2,Cumulative Days of Simulation[],Month[]  ! When Monthly Meters Requested
5,1,Cumulative Days of Simulation[] ! When Run Period Meters Requested
6,1,Calendar Year of Simulation[] ! When Annual Meters Requested
50,9,InteriorLights:Electricity [kWh] !Monthly [Value,Min,Day,Hour,Minute,Max,Day,Hour,Minute]
87,9,InteriorEquipment:Electricity [kWh] !Monthly [Value,Min,Day,Hour,Minute,Max,Day,Hour,Minute]
204,9,Fans:Electricity [kWh] !Monthly [Value,Min,Day,Hour,Minute,Max,Day,Hour,Minute]
747,9,Heating:Electricity [kWh] !Monthly [Value,Min,Day,Hour,Minute,Max,Day,Hour,Minute]
786,9,Cooling:Electricity [kWh] !Monthly [Value,Min,Day,Hour,Minute,Max,Day,Hour,Minute]
541,9,ElectricityNet:Facility [kWh] !Monthly [Value,Min,Day,Hour,Minute,Max,Day,Hour,Minute]
698,9,NaturalGas:Facility [therm] !Monthly [Value,Min,Day,Hour,Minute,Max,Day,Hour,Minute]
End of Data Dictionary
1,CHICAGO MIDWAY AP ANN HTG 99.6% CONDNS DB HVAC Sizing Pass 1,  41.78, -87.75,  -6.00, 186.00
4,1, 1
50,0.0000000000000000,0.0000000000000000,21, 1,15,0.0000000000000000,21, 1,15
87,1.2191790575342472,1.2699781849315066E-002,21, 1,15,1.2699781849315066E-002,21, 1,15
204,2.1480198377748221,1.5360160734832250E-002,21, 1,15,2.5372991652418343E-002,21,24,60
541,3.6216990989090685,3.0809944784147319E-002,21, 1,15,4.0822775701733413E-002,21,24,60
698,3.5168676367691458,2.4046340915980825E-002,21, 1,15,4.2013219966220788E-002,21,24,60
747,0.0000000000000000,0.0000000000000000,21, 1,15,0.0000000000000000,21, 1,15
786,0.0000000000000000,0.0000000000000000,21, 1,15,0.0000000000000000,21, 1,15
1,CHICAGO MIDWAY AP ANN HTG 99% CONDNS DB HVAC Sizing Pass 1,  41.78, -87.75,  -6.00, 186.00
4,1, 1
50,0.0000000000000000,0.0000000000000000,21, 1,15,0.0000000000000000,21, 1,15
87,1.2191790575342472,1.2699781849315066E-002,21, 1,15,1.2699781849315066E-002,21, 1,15
204,1.9271337963336008,1.3149438244963894E-002,21, 1,15,2.3011605831295325E-002,21,24,60
541,3.4008130574678455,2.8599222294278959E-002,21, 1,15,3.8461389880610396E-002,21,24,60
698,3.1205129171972397,2.0079452438981973E-002,21, 1,15,3.7775983385649706E-002,21,24,60
747,0.0000000000000000,0.0000000000000000,21, 1,15,0.0000000000000000,21, 1,15
786,0.0000000000000000,0.0000000000000000,21, 1,15,0.0000000000000000,21, 1,15
1,CHICAGO MIDWAY AP ANN CLG .4% CONDNS DB=>MWB HVAC Sizing Pass 1,  41.78, -87.75,  -6.00, 186.00
4,1, 7
50,0.0000000000000000,0.0000000000000000,21, 1,15,0.0000000000000000,21, 1,15
87,19.709474472248356,0.20530702575258691,21, 1,15,0.20530702575258691,21, 1,15
204,0.18809118750488457,1.9592832031758828E-003,21, 1,15,1.9592832031758828E-003,21, 1,15
541,5.4805295618276944,-0.28874270150317050,21,12,60,0.21001631115576283,21, 1,15
698,0.0000000000000000,0.0000000000000000,21, 1,15,0.0000000000000000,21, 1,15
747,0.0000000000000000,0.0000000000000000,21, 1,15,0.0000000000000000,21, 1,15
786,0.0000000000000000,0.0000000000000000,21, 1,15,0.0000000000000000,21, 1,15
1,CHICAGO MIDWAY AP ANN CLG 1% CONDNS DB=>MWB HVAC Sizing Pass 1,  41.78, -87.75,  -6.00, 186.00
4,1, 7
50,0.0000000000000000,0.0000000000000000,21, 1,15,0.0000000000000000,21, 1,15
87,19.709474472248356,0.20530702575258691,21, 1,15,0.20530702575258691,21, 1,15
204,0.18809118750488457,1.9592832031758828E-003,21, 1,15,1.9592832031758828E-003,21, 1,15
541,5.3731974872176611,-0.29247005073191928,21,12,60,0.21001631115576283,21, 1,15
698,0.0000000000000000,0.0000000000000000,21, 1,15,0.0000000000000000,21, 1,15
747,0.0000000000000000,0.0000000000000000,21, 1,15,0.0000000000000000,21, 1,15
786,0.0000000000000000,0.0000000000000000,21, 1,15,0.0000000000000000,21, 1,15
1,CHICAGO MIDWAY AP ANN HTG 99.6% CONDNS DB,  41.78, -87.75,  -6.00, 186.00
4,1, 1
50,0.0000000000000000,0.0000000000000000,21, 1,15,0.0000000000000000,21, 1,15
87,1.2191790575342472,1.2699781849315066E-002,21, 1,15,1.2699781849315066E-002,21, 1,15
204,2.1498070121572961,1.5380774887832325E-002,21, 1,15,2.5390746818863611E-002,21,24,60
541,3.6234862732915416,3.0830558937147388E-002,21, 1,15,4.0840530868178682E-002,21,24,60
698,3.5200745166451646,2.4083330654120216E-002,21, 1,15,4.2045079580216541E-002,21,24,60
747,0.0000000000000000,0.0000000000000000,21, 1,15,0.0000000000000000,21, 1,15
786,0.0000000000000000,0.0000000000000000,21, 1,15,0.0000000000000000,21, 1,15
1,CHICAGO MIDWAY AP ANN HTG 99% CONDNS DB,  41.78, -87.75,  -6.00, 186.00
4,1, 1
50,0.0000000000000000,0.0000000000000000,21, 1,15,0.0000000000000000,21, 1,15
87,1.2191790575342472,1.2699781849315066E-002,21, 1,15,1.2699781849315066E-002,21, 1,15
204,1.9271321054061448,1.3149418756289100E-002,21, 1,15,2.3011589050460114E-002,21,24,60
541,3.4008113665403910,2.8599202805604164E-002,21, 1,15,3.8461373099775188E-002,21,24,60
698,3.1205098830214584,2.0079417468785655E-002,21, 1,15,3.7775953274361611E-002,21,24,60
747,0.0000000000000000,0.0000000000000000,21, 1,15,0.0000000000000000,21, 1,15
786,0.0000000000000000,0.0000000000000000,21, 1,15,0.0000000000000000,21, 1,15
1,CHICAGO MIDWAY AP ANN CLG .4% CONDNS DB=>MWB,  41.78, -87.75,  -6.00, 186.00
4,1, 7
50,0.0000000000000000,0.0000000000000000,21, 1,15,0.0000000000000000,21, 1,15
87,19.709474472248356,0.20530702575258691,21, 1,15,0.20530702575258691,21, 1,15
204,0.18809118750488457,1.9592832031758828E-003,21, 1,15,1.9592832031758828E-003,21, 1,15
541,5.4805295618276944,-0.28874270150317050,21,12,60,0.21001631115576283,21, 1,15
698,0.0000000000000000,0.0000000000000000,21, 1,15,0.0000000000000000,21, 1,15
747,0.0000000000000000,0.0000000000000000,21, 1,15,0.0000000000000000,21, 1,15
786,0.0000000000000000,0.0000000000000000,21, 1,15,0.0000000000000000,21, 1,15
1,CHICAGO MIDWAY AP ANN CLG 1% CONDNS DB=>MWB,  41.78, -87.75,  -6.00, 186.00
4,1, 7
50,0.0000000000000000,0.0000000000000000,21, 1,15,0.0000000000000000,21, 1,15
87,19.709474472248356,0.20530702575258691,21, 1,15,0.20530702575258691,21, 1,15
204,0.18809118750488457,1.9592832031758828E-003,21, 1,15,1.9592832031758828E-003,21, 1,15
541,5.3731974872176611,-0.29247005073191928,21,12,60,0.21001631115576283,21, 1,15
698,0.0000000000000000,0.0000000000000000,21, 1,15,0.0000000000000000,21, 1,15
747,0.0000000000000000,0.0000000000000000,21, 1,15,0.0000000000000000,21, 1,15
786,0.0000000000000000,0.0000000000000000,21, 1,15,0.0000000000000000,21, 1,15
1,ANNUAL,  41.78, -87.75,  -6.00, 186.00
4,31, 1
50,0.0000000000000000,0.0000000000000000, 1, 1,15,0.0000000000000000, 1, 1,15
87,37.794550783563814,1.2699781849315066E-002, 1, 1,15,1.2699781849315066E-002, 1, 1,15
204,33.577645421933262,1.9592832031758828E-003,27, 1,30,2.4661439354597300E-002, 6, 8,15
541,-174.24009041150575,-0.69154386721057648,30,12,60,4.0111223403912363E-002, 6, 8,15
698,49.788490196744952,0.0000000000000000, 1, 1,15,4.0736420809409195E-002, 6, 8,15
747,0.0000000000000000,0.0000000000000000, 1, 1,15,0.0000000000000000, 1, 1,15
786,0.0000000000000000,0.0000000000000000, 1, 1,15,0.0000000000000000, 1, 1,15
4,59, 2
50,0.0000000000000000,0.0000000000000000, 1, 1,15,0.0000000000000000, 1, 1,15
87,34.137013610960587,1.2699781849315066E-002, 1, 1,15,1.2699781849315066E-002, 1, 1,15
204,35.343543464466599,1.9592832031758828E-003, 1, 1,15,4.5925117175832454E-002, 3, 1,15
541,-187.91156139750169,-0.71039532051479715, 2,12,60,6.1374901225147521E-002, 3, 1,15
698,53.969716439233359,0.0000000000000000, 1, 1,15,7.8891656898176121E-002, 3, 1,15
747,0.0000000000000000,0.0000000000000000, 1, 1,15,0.0000000000000000, 1, 1,15
786,0.0000000000000000,0.0000000000000000, 1, 1,15,0.0000000000000000, 1, 1,15
4,90, 3
50,0.0000000000000000,0.0000000000000000, 1, 1,15,0.0000000000000000, 1, 1,15
87,37.794550783563814,1.2699781849315066E-002, 1, 1,15,1.2699781849315066E-002, 1, 1,15
204,21.907175004606170,1.9592832031758828E-003, 3,14,60,2.1521180727474554E-002, 2, 7,30
541,-228.44642689717912,-0.69372404261780141, 8,12,45,3.6970964776789628E-002, 2, 7,30
698,28.847166791470805,0.0000000000000000, 3,14,60,3.5101586125354724E-002, 2, 7,30
747,0.0000000000000000,0.0000000000000000, 1, 1,15,0.0000000000000000, 1, 1,15
786,0.0000000000000000,0.0000000000000000, 1, 1,15,0.0000000000000000, 1, 1,15
4,120, 4
50,0.0000000000000000,0.0000000000000000, 1, 1,15,0.0000000000000000, 1, 1,15
87,36.575371726029410,1.2699781849315066E-002, 1, 1,15,1.2699781849315066E-002, 1, 1,15
204,8.7205407667156685,1.9592832031758828E-003, 1,13,15,1.0228017170159262E-002, 1, 1,15
541,-242.57076576319523,-0.62848598301079917,10,12,60,2.5677801219474331E-002, 1, 1,15
698,5.5227690524227055,0.0000000000000000, 1,13,15,1.4837296695230439E-002, 1, 1,15
747,0.0000000000000000,0.0000000000000000, 1, 1,15,0.0000000000000000, 1, 1,15
786,0.0000000000000000,0.0000000000000000, 1, 1,15,0.0000000000000000, 1, 1,15
4,151, 5
50,0.0000000000000000,0.0000000000000000, 1, 1,15,0.0000000000000000, 1, 1,15
87,37.794550783563814,1.2699781849315066E-002, 1, 1,15,1.2699781849315066E-002, 1, 1,15
204,7.3806626781255620,1.9592832031758828E-003, 1, 1,15,1.9729154237601427E-002,27,17,60
541,-288.73117190006872,-0.58024190359819650, 2,12,45,0.11570338223306764,27,18,60
698,0.21033256597810809,0.0000000000000000, 1, 1,15,7.0545973587003204E-003, 3, 5,45
747,0.0000000000000000,0.0000000000000000, 1, 1,15,0.0000000000000000, 1, 1,15
786,11.091364266316015,0.0000000000000000, 1, 1,15,0.13361067825416001,27,17,30
4,181, 6
50,0.0000000000000000,0.0000000000000000, 1, 1,15,0.0000000000000000, 1, 1,15
87,36.575371726029410,1.2699781849315066E-002, 1, 1,15,1.2699781849315066E-002, 1, 1,15
204,35.405187649489108,1.9592832031758828E-003, 1, 1,15,3.7874974744467507E-002,14,17,30
541,-18.972728815336676,-0.48358108042066245, 8,12,60,0.28528952428606852,13,18,45
698,0.0000000000000000,0.0000000000000000, 1, 1,15,0.0000000000000000, 1, 1,15
747,0.0000000000000000,0.0000000000000000, 1, 1,15,0.0000000000000000, 1, 1,15
786,235.18950940862194,0.0000000000000000, 1, 1,15,0.29699377875468608,14,15,60
4,212, 7
50,0.0000000000000000,0.0000000000000000, 1, 1,15,0.0000000000000000, 1, 1,15
87,37.794550783563814,1.2699781849315066E-002, 1, 1,15,1.2699781849315066E-002, 1, 1,15
204,43.451782489881992,1.9592832031758824E-003,26,21,30,3.9436158184926434E-002,17,16,30
541,13.757091795923373,-0.46956739071814491,24,12,60,0.27917115585817037,17,19,30
698,0.0000000000000000,0.0000000000000000, 1, 1,15,0.0000000000000000, 1, 1,15
747,0.0000000000000000,0.0000000000000000, 1, 1,15,0.0000000000000000, 1, 1,15
786,293.11417386858125,0.0000000000000000, 1,24,45,0.31000905322616196,17,16,30
4,243, 8
50,0.0000000000000000,0.0000000000000000, 1, 1,15,0.0000000000000000, 1, 1,15
87,37.794550783563814,1.2699781849315066E-002, 1, 1,15,1.2699781849315066E-002, 1, 1,15
204,51.773028638617340,1.9592832031758828E-003, 7, 4,15,4.1754482958251113E-002, 1,15,30
541,87.313708424053985,-0.32302874716191565, 7,12,45,0.31593090112312344, 1,18,60
698,0.0000000000000000,0.0000000000000000, 1, 1,15,0.0000000000000000, 1, 1,15
747,0.0000000000000000,0.0000000000000000, 1, 1,15,0.0000000000000000, 1, 1,15
786,359.76436036589411,0.0000000000000000, 7, 4,15,0.32937432112786669, 1,15,30
4,273, 9
50,0.0000000000000000,0.0000000000000000, 1, 1,15,0.0000000000000000, 1, 1,15
87,36.575371726029410,1.2699781849315066E-002, 1, 1,15,1.2699781849315066E-002, 1, 1,15
204,38.550640896970307,1.9592832031758828E-003, 2, 4,30,4.5353578215778109E-002, 6,16,15
541,-29.818397577795526,-0.43632414923217505,23,12,30,0.31714670899486452, 6,18,30
698,0.0000000000000000,0.0000000000000000, 1, 1,15,0.0000000000000000, 1, 1,15
747,0.0000000000000000,0.0000000000000000, 1, 1,15,0.0000000000000000, 1, 1,15
786,255.88695282004815,0.0000000000000000, 2, 4,30,0.35779356196346346, 6,15,60
4,304,10
50,0.0000000000000000,0.0000000000000000, 1, 1,15,0.0000000000000000, 1, 1,15
87,37.794550783563814,1.2699781849315066E-002, 1, 1,15,1.2699781849315066E-002, 1, 1,15
204,14.786977883746207,1.9592832031758828E-003, 1, 1,15,3.9225823832217274E-002, 4,16,30
541,-180.63133400898960,-0.58246983611484882, 9,13,15,0.25650283311335137, 4,18,15
698,1.0199342235733031,0.0000000000000000, 1, 1,15,1.0471147101784206E-002,28, 7,15
747,0.0000000000000000,0.0000000000000000, 1, 1,15,0.0000000000000000, 1, 1,15
786,65.570301461844963,0.0000000000000000, 1, 1,15,0.29584794723460156, 4,16,30
4,334,11
50,0.0000000000000000,0.0000000000000000, 1, 1,15,0.0000000000000000, 1, 1,15
87,36.575371726029410,1.2699781849315066E-002, 1, 1,15,1.2699781849315066E-002, 1, 1,15
204,9.6691434079196519,1.9592832031758828E-003, 1, 1,15,1.4445144830289445E-002,30, 7,60
541,-281.87683059826770,-0.57138556580817712,21,12,45,2.9894928879604512E-002,30, 7,60
698,7.2249279185344619,0.0000000000000000, 1, 1,15,2.2404449604594343E-002,30, 7,60
747,0.0000000000000000,0.0000000000000000, 1, 1,15,0.0000000000000000, 1, 1,15
786,0.0000000000000000,0.0000000000000000, 1, 1,15,0.0000000000000000, 1, 1,15
4,365,12
50,0.0000000000000000,0.0000000000000000, 1, 1,15,0.0000000000000000, 1, 1,15
87,37.794550783563814,1.2699781849315066E-002, 1, 1,15,1.2699781849315066E-002, 1, 1,15
204,31.658956294785924,1.9592832031758828E-003, 1,13,30,2.5479980125630144E-002,24, 8,15
541,-209.88507024914534,-0.62164634738412561,24,12,45,4.0929764174945212E-002,24, 8,15
698,46.345622164098152,0.0000000000000000, 1,13,30,4.2205198535896826E-002,24, 8,15
747,0.0000000000000000,0.0000000000000000, 1, 1,15,0.0000000000000000, 1, 1,15
786,0.0000000000000000,0.0000000000000000, 1, 1,15,0.0000000000000000, 1, 1,15
End of Data
 Number of Records Written=         140
