Program Version,EnergyPlus, Version 9.5.0-de239b2e5f, YMD=2023.07.06 14:29
1,5,Environment Title[],Latitude[deg],Longitude[deg],Time Zone[],Elevation[m]
2,8,Day of Simulation[],Month[],Day of Month[],DST Indicator[1=yes 0=no],Hour[],StartMinute[],EndMinute[],DayType
3,5,Cumulative Day of Simulation[],Month[],Day of Month[],DST Indicator[1=yes 0=no],DayType  ! When Daily Meters Requested
4,2,Cumulative Days of Simulation[],Month[]  ! When Monthly Meters Requested
5,1,Cumulative Days of Simulation[] ! When Run Period Meters Requested
6,1,Calendar Year of Simulation[] ! When Annual Meters Requested
50,9,InteriorLights:Electricity [kWh] !Monthly [Value,Min,Day,Hour,Minute,Max,Day,Hour,Minute]
87,9,InteriorEquipment:Electricity [kWh] !Monthly [Value,Min,Day,Hour,Minute,Max,Day,Hour,Minute]
204,9,Fans:Electricity [kWh] !Monthly [Value,Min,Day,Hour,Minute,Max,Day,Hour,Minute]
747,9,Heating:Electricity [kWh] !Monthly [Value,Min,Day,Hour,Minute,Max,Day,Hour,Minute]
786,9,Cooling:Electricity [kWh] !Monthly [Value,Min,Day,Hour,Minute,Max,Day,Hour,Minute]
541,9,ElectricityNet:Facility [kWh] !Monthly [Value,Min,Day,Hour,Minute,Max,Day,Hour,Minute]
698,9,NaturalGas:Facility [therm] !Monthly [Value,Min,Day,Hour,Minute,Max,Day,Hour,Minute]
End of Data Dictionary
1,CHICAGO MIDWAY AP ANN HTG 99.6% CONDNS DB HVAC Sizing Pass 1,  41.78, -87.75,  -6.00, 186.00
4,1, 1
50,0.0000000000000000,0.0000000000000000,21, 1,15,0.0000000000000000,21, 1,15
87,1.2191790575342472,1.2699781849315066E-002,21, 1,15,1.2699781849315066E-002,21, 1,15
204,2.1480198377748221,1.5360160734832250E-002,21, 1,15,2.5372991652418343E-002,21,24,60
541,3.6216990989090685,3.0809944784147319E-002,21, 1,15,4.0822775701733413E-002,21,24,60
698,3.5168676367691458,2.4046340915980825E-002,21, 1,15,4.2013219966220788E-002,21,24,60
747,0.0000000000000000,0.0000000000000000,21, 1,15,0.0000000000000000,21, 1,15
786,0.0000000000000000,0.0000000000000000,21, 1,15,0.0000000000000000,21, 1,15
1,CHICAGO MIDWAY AP ANN HTG 99% CONDNS DB HVAC Sizing Pass 1,  41.78, -87.75,  -6.00, 186.00
4,1, 1
50,0.0000000000000000,0.0000000000000000,21, 1,15,0.0000000000000000,21, 1,15
87,1.2191790575342472,1.2699781849315066E-002,21, 1,15,1.2699781849315066E-002,21, 1,15
204,1.9271337963336008,1.3149438244963894E-002,21, 1,15,2.3011605831295325E-002,21,24,60
541,3.4008130574678455,2.8599222294278959E-002,21, 1,15,3.8461389880610396E-002,21,24,60
698,3.1205129171972397,2.0079452438981973E-002,21, 1,15,3.7775983385649706E-002,21,24,60
747,0.0000000000000000,0.0000000000000000,21, 1,15,0.0000000000000000,21, 1,15
786,0.0000000000000000,0.0000000000000000,21, 1,15,0.0000000000000000,21, 1,15
1,CHICAGO MIDWAY AP ANN CLG .4% CONDNS DB=>MWB HVAC Sizing Pass 1,  41.78, -87.75,  -6.00, 186.00
4,1, 7
50,0.0000000000000000,0.0000000000000000,21, 1,15,0.0000000000000000,21, 1,15
87,19.709474472248356,0.20530702575258691,21, 1,15,0.20530702575258691,21, 1,15
204,0.18809118750488457,1.9592832031758828E-003,21, 1,15,1.9592832031758828E-003,21, 1,15
541,5.4805295618276944,-0.28874270150317050,21,12,60,0.21001631115576283,21, 1,15
698,0.0000000000000000,0.0000000000000000,21, 1,15,0.0000000000000000,21, 1,15
747,0.0000000000000000,0.0000000000000000,21, 1,15,0.0000000000000000,21, 1,15
786,0.0000000000000000,0.0000000000000000,21, 1,15,0.0000000000000000,21, 1,15
1,CHICAGO MIDWAY AP ANN CLG 1% CONDNS DB=>MWB HVAC Sizing Pass 1,  41.78, -87.75,  -6.00, 186.00
4,1, 7
50,0.0000000000000000,0.0000000000000000,21, 1,15,0.0000000000000000,21, 1,15
87,19.709474472248356,0.20530702575258691,21, 1,15,0.20530702575258691,21, 1,15
204,0.18809118750488457,1.9592832031758828E-003,21, 1,15,1.9592832031758828E-003,21, 1,15
541,5.3731974872176611,-0.29247005073191928,21,12,60,0.21001631115576283,21, 1,15
698,0.0000000000000000,0.0000000000000000,21, 1,15,0.0000000000000000,21, 1,15
747,0.0000000000000000,0.0000000000000000,21, 1,15,0.0000000000000000,21, 1,15
786,0.0000000000000000,0.0000000000000000,21, 1,15,0.0000000000000000,21, 1,15
1,CHICAGO MIDWAY AP ANN HTG 99.6% CONDNS DB,  41.78, -87.75,  -6.00, 186.00
4,1, 1
50,0.0000000000000000,0.0000000000000000,21, 1,15,0.0000000000000000,21, 1,15
87,1.2191790575342472,1.2699781849315066E-002,21, 1,15,1.2699781849315066E-002,21, 1,15
204,2.1498070121572961,1.5380774887832325E-002,21, 1,15,2.5390746818863611E-002,21,24,60
541,3.6234862732915416,3.0830558937147388E-002,21, 1,15,4.0840530868178682E-002,21,24,60
698,3.5200745166451646,2.4083330654120216E-002,21, 1,15,4.2045079580216541E-002,21,24,60
747,0.0000000000000000,0.0000000000000000,21, 1,15,0.0000000000000000,21, 1,15
786,0.0000000000000000,0.0000000000000000,21, 1,15,0.0000000000000000,21, 1,15
1,CHICAGO MIDWAY AP ANN HTG 99% CONDNS DB,  41.78, -87.75,  -6.00, 186.00
4,1, 1
50,0.0000000000000000,0.0000000000000000,21, 1,15,0.0000000000000000,21, 1,15
87,1.2191790575342472,1.2699781849315066E-002,21, 1,15,1.2699781849315066E-002,21, 1,15
204,1.9271321054061448,1.3149418756289100E-002,21, 1,15,2.3011589050460114E-002,21,24,60
541,3.4008113665403910,2.8599202805604164E-002,21, 1,15,3.8461373099775188E-002,21,24,60
698,3.1205098830214584,2.0079417468785655E-002,21, 1,15,3.7775953274361611E-002,21,24,60
747,0.0000000000000000,0.0000000000000000,21, 1,15,0.0000000000000000,21, 1,15
786,0.0000000000000000,0.0000000000000000,21, 1,15,0.0000000000000000,21, 1,15
1,CHICAGO MIDWAY AP ANN CLG .4% CONDNS DB=>MWB,  41.78, -87.75,  -6.00, 186.00
4,1, 7
50,0.0000000000000000,0.0000000000000000,21, 1,15,0.0000000000000000,21, 1,15
87,19.709474472248356,0.20530702575258691,21, 1,15,0.20530702575258691,21, 1,15
204,0.18809118750488457,1.9592832031758828E-003,21, 1,15,1.9592832031758828E-003,21, 1,15
541,5.4805295618276944,-0.28874270150317050,21,12,60,0.21001631115576283,21, 1,15
698,0.0000000000000000,0.0000000000000000,21, 1,15,0.0000000000000000,21, 1,15
747,0.0000000000000000,0.0000000000000000,21, 1,15,0.0000000000000000,21, 1,15
786,0.0000000000000000,0.0000000000000000,21, 1,15,0.0000000000000000,21, 1,15
1,CHICAGO MIDWAY AP ANN CLG 1% CONDNS DB=>MWB,  41.78, -87.75,  -6.00, 186.00
4,1, 7
50,0.0000000000000000,0.0000000000000000,21, 1,15,0.0000000000000000,21, 1,15
87,19.709474472248356,0.20530702575258691,21, 1,15,0.20530702575258691,21, 1,15
204,0.18809118750488457,1.9592832031758828E-003,21, 1,15,1.9592832031758828E-003,21, 1,15
541,5.3731974872176611,-0.29247005073191928,21,12,60,0.21001631115576283,21, 1,15
698,0.0000000000000000,0.0000000000000000,21, 1,15,0.0000000000000000,21, 1,15
747,0.0000000000000000,0.0000000000000000,21, 1,15,0.0000000000000000,21, 1,15
786,0.0000000000000000,0.0000000000000000,21, 1,15,0.0000000000000000,21, 1,15
1,ANNUAL,  41.78, -87.75,  -6.00, 186.00
4,31, 1
50,0.0000000000000000,0.0000000000000000, 1, 1,15,0.0000000000000000, 1, 1,15
87,37.794550783563814,1.2699781849315066E-002, 1, 1,15,1.2699781849315066E-002, 1, 1,15
204,33.577645421933262,1.9592832031758828E-003,27, 1,30,2.4661439354597300E-002, 6, 8,15
541,-175.84615891365928,-0.72265609128146224,30,12,60,4.0111223403912363E-002, 6, 8,15
698,49.788490196744952,0.0000000000000000, 1, 1,15,4.0736420809409195E-002, 6, 8,15
747,0.0000000000000000,0.0000000000000000, 1, 1,15,0.0000000000000000, 1, 1,15
786,0.0000000000000000,0.0000000000000000, 1, 1,15,0.0000000000000000, 1, 1,15
4,59, 2
50,0.0000000000000000,0.0000000000000000, 1, 1,15,0.0000000000000000, 1, 1,15
87,34.137013610960587,1.2699781849315066E-002, 1, 1,15,1.2699781849315066E-002, 1, 1,15
204,36.525266188800728,1.9592832031758828E-003, 1, 1,15,4.5925117175832454E-002, 3, 1,15
541,-187.25991446573656,-0.71774787492952097, 2,12,60,6.1374901225147521E-002, 3, 1,15
698,56.090182612465476,0.0000000000000000, 1, 1,15,7.8891656898176121E-002, 3, 1,15
747,0.0000000000000000,0.0000000000000000, 1, 1,15,0.0000000000000000, 1, 1,15
786,0.0000000000000000,0.0000000000000000, 1, 1,15,0.0000000000000000, 1, 1,15
4,90, 3
50,0.0000000000000000,0.0000000000000000, 1, 1,15,0.0000000000000000, 1, 1,15
87,37.794550783563814,1.2699781849315066E-002, 1, 1,15,1.2699781849315066E-002, 1, 1,15
204,22.029584078574150,1.9592832031758828E-003, 3,15,15,2.1603569436198063E-002, 2, 7,30
541,-228.32401782321043,-0.69367305058568773, 8,12,45,3.7053353485513127E-002, 2, 7,30
698,29.066815864219151,0.0000000000000000, 3,15,15,3.5249423233254043E-002, 2, 7,30
747,0.0000000000000000,0.0000000000000000, 1, 1,15,0.0000000000000000, 1, 1,15
786,0.0000000000000000,0.0000000000000000, 1, 1,15,0.0000000000000000, 1, 1,15
4,120, 4
50,0.0000000000000000,0.0000000000000000, 1, 1,15,0.0000000000000000, 1, 1,15
87,36.575371726029410,1.2699781849315066E-002, 1, 1,15,1.2699781849315066E-002, 1, 1,15
204,8.7544565375727945,1.9592832031758828E-003, 1,13,15,1.0257208210892307E-002, 1, 1,15
541,-242.53684999233766,-0.62848598301079917,10,12,60,2.5706992260207374E-002, 1, 1,15
698,5.5836270213529033,0.0000000000000000, 1,13,15,1.4889676676727989E-002, 1, 1,15
747,0.0000000000000000,0.0000000000000000, 1, 1,15,0.0000000000000000, 1, 1,15
786,0.0000000000000000,0.0000000000000000, 1, 1,15,0.0000000000000000, 1, 1,15
4,151, 5
50,0.0000000000000000,0.0000000000000000, 1, 1,15,0.0000000000000000, 1, 1,15
87,37.794550783563814,1.2699781849315066E-002, 1, 1,15,1.2699781849315066E-002, 1, 1,15
204,7.3638385725935116,1.9592832031758828E-003, 1, 1,15,1.9694887657365497E-002,27,17,60
541,-288.90716947397607,-0.58024190359819650, 2,12,45,0.11544051901023755,27,18,60
698,0.21660942396399657,0.0000000000000000, 1, 1,15,7.1306252960883889E-003, 3, 5,45
747,0.0000000000000000,0.0000000000000000, 1, 1,15,0.0000000000000000, 1, 1,15
786,10.932190797940599,0.0000000000000000, 1, 1,15,0.13338097458428264,27,17,30
4,181, 6
50,0.0000000000000000,0.0000000000000000, 1, 1,15,0.0000000000000000, 1, 1,15
87,36.575371726029410,1.2699781849315066E-002, 1, 1,15,1.2699781849315066E-002, 1, 1,15
204,35.364502686781208,1.9592832031758828E-003, 1, 1,15,3.7855183889869311E-002,14,17,30
541,-19.317686238702901,-0.48358108042066245, 8,12,60,0.28509902145848587,13,18,45
698,0.0000000000000000,0.0000000000000000, 1, 1,15,0.0000000000000000, 1, 1,15
747,0.0000000000000000,0.0000000000000000, 1, 1,15,0.0000000000000000, 1, 1,15
786,234.88523694796342,0.0000000000000000, 1, 1,15,0.29683648294016923,14,15,60
4,212, 7
50,0.0000000000000000,0.0000000000000000, 1, 1,15,0.0000000000000000, 1, 1,15
87,37.794550783563814,1.2699781849315066E-002, 1, 1,15,1.2699781849315066E-002, 1, 1,15
204,43.870213585430697,1.9592832031758824E-003,26,21,60,3.9423500432894491E-002,17,16,30
541,17.773902012217750,-0.46336671791133599,24,12,60,0.27906409820079497,17,19,30
698,0.0000000000000000,0.0000000000000000, 1, 1,15,0.0000000000000000, 1, 1,15
747,0.0000000000000000,0.0000000000000000, 1, 1,15,0.0000000000000000, 1, 1,15
786,296.13471851304251,0.0000000000000000, 1,24,45,0.30990809190723928,17,16,30
4,243, 8
50,0.0000000000000000,0.0000000000000000, 1, 1,15,0.0000000000000000, 1, 1,15
87,37.794550783563814,1.2699781849315066E-002, 1, 1,15,1.2699781849315066E-002, 1, 1,15
204,52.013444564927170,1.9592832031758828E-003, 7, 4,15,4.2058341213123789E-002, 1,15,30
541,89.335600775609890,-0.32206173283495221, 7,12,45,0.31859412854623209, 1,18,60
698,0.0000000000000000,0.0000000000000000, 1, 1,15,0.0000000000000000, 1, 1,15
747,0.0000000000000000,0.0000000000000000, 1, 1,15,0.0000000000000000, 1, 1,15
786,361.54583679114006,0.0000000000000000, 7, 4,15,0.33177605447508218, 1,15,30
4,273, 9
50,0.0000000000000000,0.0000000000000000, 1, 1,15,0.0000000000000000, 1, 1,15
87,36.575371726029410,1.2699781849315066E-002, 1, 1,15,1.2699781849315066E-002, 1, 1,15
204,38.578128829157357,1.9592832031758828E-003, 2, 4,30,4.5368353754486529E-002, 6,16,15
541,-29.589163859287613,-0.43620767649619557,23,12,30,0.31727494311851134, 6,18,30
698,0.0000000000000000,0.0000000000000000, 1, 1,15,0.0000000000000000, 1, 1,15
747,0.0000000000000000,0.0000000000000000, 1, 1,15,0.0000000000000000, 1, 1,15
786,256.08869860636912,0.0000000000000000, 2, 4,30,0.35791006740029041, 6,15,60
4,304,10
50,0.0000000000000000,0.0000000000000000, 1, 1,15,0.0000000000000000, 1, 1,15
87,37.794550783563814,1.2699781849315066E-002, 1, 1,15,1.2699781849315066E-002, 1, 1,15
204,14.789906046439954,1.9592832031758828E-003, 1, 1,15,3.9230049664375377E-002, 4,16,30
541,-180.60331644509600,-0.58246983611484882, 9,13,15,0.25653904741485334, 4,18,15
698,1.0191258931965812,0.0000000000000000, 1, 1,15,1.0469120218151887E-002,28, 7,15
747,0.0000000000000000,0.0000000000000000, 1, 1,15,0.0000000000000000, 1, 1,15
786,65.595390863044742,0.0000000000000000, 1, 1,15,0.29587992194418811, 4,16,30
4,334,11
50,0.0000000000000000,0.0000000000000000, 1, 1,15,0.0000000000000000, 1, 1,15
87,36.575371726029410,1.2699781849315066E-002, 1, 1,15,1.2699781849315066E-002, 1, 1,15
204,9.6691749788727410,1.9592832031758828E-003, 1, 1,15,1.4445495332119210E-002,30, 7,60
541,-281.87679902731503,-0.57138556580817712,21,12,45,2.9895279381434277E-002,30, 7,60
698,7.2249845689962564,0.0000000000000000, 1, 1,15,2.2405078540010719E-002,30, 7,60
747,0.0000000000000000,0.0000000000000000, 1, 1,15,0.0000000000000000, 1, 1,15
786,0.0000000000000000,0.0000000000000000, 1, 1,15,0.0000000000000000, 1, 1,15
4,365,12
50,0.0000000000000000,0.0000000000000000, 1, 1,15,0.0000000000000000, 1, 1,15
87,37.794550783563814,1.2699781849315066E-002, 1, 1,15,1.2699781849315066E-002, 1, 1,15
204,31.660420858505827,1.9592832031758828E-003, 1,13,30,2.5480597108818285E-002,24, 8,15
541,-209.88360568542595,-0.62164573462459594,24,12,45,4.0930381158133348E-002,24, 8,15
698,46.348250156065198,0.0000000000000000, 1,13,30,4.2206305641610355E-002,24, 8,15
747,0.0000000000000000,0.0000000000000000, 1, 1,15,0.0000000000000000, 1, 1,15
786,0.0000000000000000,0.0000000000000000, 1, 1,15,0.0000000000000000, 1, 1,15
End of Data
 Number of Records Written=         140
